3
Properties=species:S:1:pos:R:3:forces:R:3:energies:R:1 energy=1.8788838441818605 free_energy=1.8788838441818605 pbc="F F F"
H       -0.85442666       0.10310956       0.00000000       0.00000715      -0.00004854       0.00000000       0.58381415
O        0.00000000       0.79378088       0.00000000      -0.00000000       0.00009709       0.00000000       0.71125555
H        0.85442666       0.10310956       0.00000000      -0.00000715      -0.00004854       0.00000000       0.58381415
