3
Lattice="7.0 0.0 0.0 0.0 7.0 0.0 0.0 0.0 6.0" Properties=species:S:1:pos:R:3:forces:R:3:energies:R:1 energy=1.8788838441818592 free_energy=1.8788838441818592 pbc="F F F"
H        2.64557334       3.10310956       3.00000000       0.00000715      -0.00004854       0.00000000       0.58381415
O        3.50000000       3.79378088       3.00000000      -0.00000000       0.00009709       0.00000000       0.71125555
H        4.35442666       3.10310956       3.00000000      -0.00000715      -0.00004854       0.00000000       0.58381415
