LAMMPS (3 Mar 2020)
# Compute elastic constant tensor for a crystal
#
# Written by Aidan Thompson (Sandia, athomps@sandia.gov)
#
#  This script uses the following three include files.
#
#   init.mod      (must be modified for different crystal structures)
# 	       	  Define units, deformation parameters and initial
#		  configuration of the atoms and simulation cell.
#
#
#   potential.mod    (must be modified for different pair styles)
# 		     Define pair style and other attributes
#		     not stored in restart file
#
#
#   displace.mod    (displace.mod should not need to be modified)
# 		    Perform positive and negative box displacements
# 		    in direction ${dir} and size ${up}.
# 		    It uses the resultant changes
#		    in stress to compute one
# 		    row of the elastic stiffness tensor
#
#		    Inputs variables:
#		    	   dir = the Voigt deformation component
#		    		    (1,2,3,4,5,6)
#		    Global constants:
#       	    	   up = the deformation magnitude (strain units)
#       		   cfac = conversion from LAMMPS pressure units to
#               	   output units for elastic constants
#
#
#  To run this on a different system, it should only be necessary to
#  modify the files init.mod and potential.mod. In order to calculate
#  the elastic constants correctly, care must be taken to specify
#  the correct units in init.mod (units, cfac and cunits). It is also
#  important to verify that the minimization of energy w.r.t atom
#  positions in the deformed cell is fully converged.
#  One indication of this is that the elastic constants are insensitive
#  to the choice of the variable ${up} in init.mod. Another is to check
#  the final max and two-norm forces reported in the log file. If you know
#  that minimization is not required, you can set maxiter = 0.0 in
#  init.mod.
#

include init.mod
# NOTE: This script can be modified for different atomic structures,
# units, etc. See in.elastic for more info.
#

# Define the finite deformation size. Try several values of this
# variable to verify that results do not depend on it.
variable up equal 1.0e-6

# Define the amount of random jiggle for atoms
# This prevents atoms from staying on saddle points
variable atomjiggle equal 1.0e-5

# Uncomment one of these blocks, depending on what units
# you are using in LAMMPS and for output

# metal units, elastic constants in eV/A^3
#units		metal
#variable cfac equal 6.2414e-7
#variable cunits string eV/A^3

# metal units, elastic constants in GPa
units		metal
variable cfac equal 1.0e-4
variable cunits string GPa

# real units, elastic constants in GPa
#units		real
#variable cfac equal 1.01325e-4
#variable cunits string GPa

# Define minimization parameters
variable etol equal 0.0
variable ftol equal 1.0e-10
variable maxiter equal 100
variable maxeval equal 1000
variable dmax equal 1.0e-2

# generate the box and atom positions using a diamond lattice
variable a equal 5.43

boundary	p p p

lattice         diamond $a
lattice         diamond 5.43
Lattice spacing in x,y,z = 5.43 5.43 5.43
region		box prism 0 2.0 0 3.0 0 4.0 0.0 0.0 0.0
create_box	1 box
Created triclinic box = (0 0 0) to (10.86 16.29 21.72) with tilt (0 0 0)
  1 by 1 by 1 MPI processor grid
create_atoms	1 box
Created 192 atoms
  create_atoms CPU = 0.000428915 secs

# Need to set mass to something, just to satisfy LAMMPS
mass 1 1.0e-20

include potential.mod
# NOTE: This script can be modified for different pair styles
# See in.elastic for more info.

# Choose potential
pair_style	sw
pair_coeff * * Si.sw Si
Reading potential file Si.sw with DATE: 2007-06-11

# Setup neighbor style
neighbor 1.0 nsq
neigh_modify once no every 1 delay 0 check yes

# Setup minimization style
min_style	     cg
min_modify	     dmax ${dmax} line quadratic
min_modify	     dmax 0.01 line quadratic

# Setup output
thermo		1
thermo_style custom step temp pe press pxx pyy pzz pxy pxz pyz lx ly lz vol
thermo_modify norm no

# Compute initial state
fix 3 all box/relax  aniso 0.0
minimize ${etol} ${ftol} ${maxiter} ${maxeval}
minimize 0 ${ftol} ${maxiter} ${maxeval}
minimize 0 1e-10 ${maxiter} ${maxeval}
minimize 0 1e-10 100 ${maxeval}
minimize 0 1e-10 100 1000
Neighbor list info ...
  update every 1 steps, delay 0 steps, check yes
  max neighbors/atom: 2000, page size: 100000
  master list distance cutoff = 4.77118
  ghost atom cutoff = 4.77118
  1 neighbor lists, perpetual/occasional/extra = 1 0 0
  (1) pair sw, perpetual
      attributes: full, newton on
      pair build: full/nsq
      stencil: none
      bin: none
Per MPI rank memory allocation (min/avg/max) = 4.178 | 4.178 | 4.178 Mbytes
Step Temp PotEng Press Pxx Pyy Pzz Pxy Pxz Pyz Lx Ly Lz Volume 
       0            0   -832.62686    532.56802    532.56802    532.56802    532.56802  2.31147e-11 -1.0138728e-11 6.6697129e-12        10.86        16.29        21.72    3842.4722 
       1            0   -832.62714    227.98084    227.98084    227.98084    227.98084 2.8695602e-10 -1.0031052e-10 4.714539e-11    10.861086    16.291629    21.722172     3843.625 
       2            0    -832.6272 -0.016514738 -0.016514738 -0.016514738 -0.016514738 -4.8086137e-11 1.0021046e-10 -4.2157866e-11      10.8619    16.292849    21.723799    3844.4889 
       3            0    -832.6272 -1.8901541e-06 -1.8901704e-06 -1.8901198e-06 -1.8901721e-06 1.651315e-10 2.6639791e-11 -3.1664045e-10      10.8619    16.292849    21.723799    3844.4888 
       4            0    -832.6272 -4.1060377e-11 -2.2709669e-11 -8.800783e-11 -1.2463631e-11 5.9162573e-10 1.2434231e-10 -2.2833446e-10      10.8619    16.292849    21.723799    3844.4888 
Loop time of 0.00149107 on 1 procs for 4 steps with 192 atoms

100.2% CPU use with 1 MPI tasks x no OpenMP threads

Minimization stats:
  Stopping criterion = force tolerance
  Energy initial, next-to-last, final = 
        -832.626864929     -832.627199984     -832.627199984
  Force two-norm initial, final = 2.21226 6.81561e-13
  Force max component initial, final = 1.27725 2.11141e-13
  Final line search alpha, max atom move = 1 2.11141e-13
  Iterations, force evaluations = 4 7

MPI task timing breakdown:
Section |  min time  |  avg time  |  max time  |%varavg| %total
---------------------------------------------------------------
Pair    | 0.0012131  | 0.0012131  | 0.0012131  |   0.0 | 81.36
Neigh   | 0          | 0          | 0          |   0.0 |  0.00
Comm    | 4.7207e-05 | 4.7207e-05 | 4.7207e-05 |   0.0 |  3.17
Output  | 5.6982e-05 | 5.6982e-05 | 5.6982e-05 |   0.0 |  3.82
Modify  | 0          | 0          | 0          |   0.0 |  0.00
Other   |            | 0.0001738  |            |       | 11.66

Nlocal:    192 ave 192 max 192 min
Histogram: 1 0 0 0 0 0 0 0 0 0
Nghost:    634 ave 634 max 634 min
Histogram: 1 0 0 0 0 0 0 0 0 0
Neighs:    0 ave 0 max 0 min
Histogram: 1 0 0 0 0 0 0 0 0 0
FullNghs:  5376 ave 5376 max 5376 min
Histogram: 1 0 0 0 0 0 0 0 0 0

Total # of neighbors = 5376
Ave neighs/atom = 28
Neighbor list builds = 0
Dangerous builds = 0

variable tmp equal pxx
variable pxx0 equal ${tmp}
variable pxx0 equal -2.270966919983e-11
variable tmp equal pyy
variable pyy0 equal ${tmp}
variable pyy0 equal -8.8007830126696e-11
variable tmp equal pzz
variable pzz0 equal ${tmp}
variable pzz0 equal -1.24636314952532e-11
variable tmp equal pyz
variable pyz0 equal ${tmp}
variable pyz0 equal -2.28334457728729e-10
variable tmp equal pxz
variable pxz0 equal ${tmp}
variable pxz0 equal 1.24342305137885e-10
variable tmp equal pxy
variable pxy0 equal ${tmp}
variable pxy0 equal 5.91625731776109e-10

variable tmp equal lx
variable lx0 equal ${tmp}
variable lx0 equal 10.8618995568104
variable tmp equal ly
variable ly0 equal ${tmp}
variable ly0 equal 16.2928493352156
variable tmp equal lz
variable lz0 equal ${tmp}
variable lz0 equal 21.7237991136209

# These formulas define the derivatives w.r.t. strain components
# Constants uses $, variables use v_
variable d1 equal -(v_pxx1-${pxx0})/(v_delta/v_len0)*${cfac}
variable d1 equal -(v_pxx1--2.270966919983e-11)/(v_delta/v_len0)*${cfac}
variable d1 equal -(v_pxx1--2.270966919983e-11)/(v_delta/v_len0)*0.0001
variable d2 equal -(v_pyy1-${pyy0})/(v_delta/v_len0)*${cfac}
variable d2 equal -(v_pyy1--8.8007830126696e-11)/(v_delta/v_len0)*${cfac}
variable d2 equal -(v_pyy1--8.8007830126696e-11)/(v_delta/v_len0)*0.0001
variable d3 equal -(v_pzz1-${pzz0})/(v_delta/v_len0)*${cfac}
variable d3 equal -(v_pzz1--1.24636314952532e-11)/(v_delta/v_len0)*${cfac}
variable d3 equal -(v_pzz1--1.24636314952532e-11)/(v_delta/v_len0)*0.0001
variable d4 equal -(v_pyz1-${pyz0})/(v_delta/v_len0)*${cfac}
variable d4 equal -(v_pyz1--2.28334457728729e-10)/(v_delta/v_len0)*${cfac}
variable d4 equal -(v_pyz1--2.28334457728729e-10)/(v_delta/v_len0)*0.0001
variable d5 equal -(v_pxz1-${pxz0})/(v_delta/v_len0)*${cfac}
variable d5 equal -(v_pxz1-1.24342305137885e-10)/(v_delta/v_len0)*${cfac}
variable d5 equal -(v_pxz1-1.24342305137885e-10)/(v_delta/v_len0)*0.0001
variable d6 equal -(v_pxy1-${pxy0})/(v_delta/v_len0)*${cfac}
variable d6 equal -(v_pxy1-5.91625731776109e-10)/(v_delta/v_len0)*${cfac}
variable d6 equal -(v_pxy1-5.91625731776109e-10)/(v_delta/v_len0)*0.0001

displace_atoms all random ${atomjiggle} ${atomjiggle} ${atomjiggle} 87287 units box
displace_atoms all random 1e-05 ${atomjiggle} ${atomjiggle} 87287 units box
displace_atoms all random 1e-05 1e-05 ${atomjiggle} 87287 units box
displace_atoms all random 1e-05 1e-05 1e-05 87287 units box

# Write restart
unfix 3
write_restart restart.equil

# uxx Perturbation

variable dir equal 1
include displace.mod
# NOTE: This script should not need to be
# modified. See in.elastic for more info.
#
# Find which reference length to use

if "${dir} == 1" then    "variable len0 equal ${lx0}"
variable len0 equal ${lx0}
variable len0 equal 10.8618995568104
if "${dir} == 2" then    "variable len0 equal ${ly0}"
if "${dir} == 3" then    "variable len0 equal ${lz0}"
if "${dir} == 4" then    "variable len0 equal ${lz0}"
if "${dir} == 5" then    "variable len0 equal ${lz0}"
if "${dir} == 6" then    "variable len0 equal ${ly0}"

# Reset box and simulation parameters

clear
box tilt large
read_restart restart.equil
  restoring atom style atomic from restart
  triclinic box = (-0.000949778 -0.00142467 -0.00189956) to (10.8609 16.2914 21.7219) with tilt (0 0 0)
  1 by 1 by 1 MPI processor grid
  pair style sw stores no restart info
  192 atoms
  read_restart CPU = 0.000191927 secs
include potential.mod
# NOTE: This script can be modified for different pair styles
# See in.elastic for more info.

# Choose potential
pair_style	sw
pair_coeff * * Si.sw Si
Reading potential file Si.sw with DATE: 2007-06-11

# Setup neighbor style
neighbor 1.0 nsq
neigh_modify once no every 1 delay 0 check yes

# Setup minimization style
min_style	     cg
min_modify	     dmax ${dmax} line quadratic
min_modify	     dmax 0.01 line quadratic

# Setup output
thermo		1
thermo_style custom step temp pe press pxx pyy pzz pxy pxz pyz lx ly lz vol
thermo_modify norm no

# Negative deformation

variable delta equal -${up}*${len0}
variable delta equal -1e-06*${len0}
variable delta equal -1e-06*10.8618995568104
variable deltaxy equal -${up}*xy
variable deltaxy equal -1e-06*xy
variable deltaxz equal -${up}*xz
variable deltaxz equal -1e-06*xz
variable deltayz equal -${up}*yz
variable deltayz equal -1e-06*yz
if "${dir} == 1" then    "change_box all x delta 0 ${delta} xy delta ${deltaxy} xz delta ${deltaxz} remap units box"
change_box all x delta 0 ${delta} xy delta ${deltaxy} xz delta ${deltaxz} remap units box
change_box all x delta 0 -1.08618995568104e-05 xy delta ${deltaxy} xz delta ${deltaxz} remap units box
change_box all x delta 0 -1.08618995568104e-05 xy delta -0 xz delta ${deltaxz} remap units box
change_box all x delta 0 -1.08618995568104e-05 xy delta -0 xz delta -0 remap units box
  triclinic box = (-0.000949778 -0.00142467 -0.00189956) to (10.8609 16.2914 21.7219) with tilt (0 0 0)
  triclinic box = (-0.000949778 -0.00142467 -0.00189956) to (10.8609 16.2914 21.7219) with tilt (0 0 0)
  triclinic box = (-0.000949778 -0.00142467 -0.00189956) to (10.8609 16.2914 21.7219) with tilt (0 0 0)
if "${dir} == 2" then    "change_box all y delta 0 ${delta} yz delta ${deltayz} remap units box"
if "${dir} == 3" then    "change_box all z delta 0 ${delta} remap units box"
if "${dir} == 4" then    "change_box all yz delta ${delta} remap units box"
if "${dir} == 5" then    "change_box all xz delta ${delta} remap units box"
if "${dir} == 6" then    "change_box all xy delta ${delta} remap units box"

# Relax atoms positions

minimize ${etol} ${ftol} ${maxiter} ${maxeval}
minimize 0 ${ftol} ${maxiter} ${maxeval}
minimize 0 1e-10 ${maxiter} ${maxeval}
minimize 0 1e-10 100 ${maxeval}
minimize 0 1e-10 100 1000
Neighbor list info ...
  update every 1 steps, delay 0 steps, check yes
  max neighbors/atom: 2000, page size: 100000
  master list distance cutoff = 4.77118
  ghost atom cutoff = 4.77118
  1 neighbor lists, perpetual/occasional/extra = 1 0 0
  (1) pair sw, perpetual
      attributes: full, newton on
      pair build: full/nsq
      stencil: none
      bin: none
Per MPI rank memory allocation (min/avg/max) = 4.178 | 4.178 | 4.178 Mbytes
Step Temp PotEng Press Pxx Pyy Pzz Pxy Pxz Pyz Lx Ly Lz Volume 
       4            0    -832.6272     1.014294    1.5143133   0.76428315   0.76428565    1.6660607 -0.076089012   0.43727144    10.861889    16.292849    21.723799     3844.485 
       5            0    -832.6272     1.014232    1.5142476   0.76422433   0.76422415  -0.39440015  0.018013284  -0.10350874    10.861889    16.292849    21.723799     3844.485 
       6            0    -832.6272    1.0142305     1.514246   0.76422276   0.76422268   0.34143217 -0.015595243  0.089605869    10.861889    16.292849    21.723799     3844.485 
       7            0    -832.6272    1.0142306    1.5142464    0.7642228   0.76422254  -0.23685471  0.010819025 -0.062159933    10.861889    16.292849    21.723799     3844.485 
       8            0    -832.6272    1.0142306    1.5142465   0.76422278   0.76422264    0.1222191 -0.0055828177   0.03207439    10.861889    16.292849    21.723799     3844.485 
       9            0    -832.6272    1.0142306    1.5142465   0.76422273   0.76422268 -0.061069469 0.0027897484 -0.016026349    10.861889    16.292849    21.723799     3844.485 
      10            0    -832.6272    1.0142306    1.5142465   0.76422273   0.76422268  0.031065937 -0.0014192854 0.0081522311    10.861889    16.292849    21.723799     3844.485 
      11            0    -832.6272    1.0142306    1.5142465   0.76422272   0.76422271 -0.020718151 0.0009466928 -0.0054364902    10.861889    16.292849    21.723799     3844.485 
      12            0    -832.6272    1.0142306    1.5142465   0.76422271    0.7642227  0.010753224 -0.00049146464 0.0028214637    10.861889    16.292849    21.723799     3844.485 
      13            0    -832.6272    1.0142306    1.5142465   0.76422271   0.76422271 -0.0058917414 0.00026937761 -0.0015457363    10.861889    16.292849    21.723799     3844.485 
      14            0    -832.6272    1.0142306    1.5142465   0.76422271   0.76422271  0.003284425 -0.00015026367 0.00086153261    10.861889    16.292849    21.723799     3844.485 
      15            0    -832.6272    1.0142306    1.5142465   0.76422271   0.76422271 -0.0016643291 7.6270667e-05 -0.00043637511    10.861889    16.292849    21.723799     3844.485 
      16            0    -832.6272    1.0142306    1.5142465   0.76422271   0.76422271 0.00099240437 -4.5609263e-05 0.00025999489    10.861889    16.292849    21.723799     3844.485 
      17            0    -832.6272    1.0142306    1.5142465   0.76422271   0.76422271 -0.00057079574 2.6378839e-05 -0.00014931644    10.861889    16.292849    21.723799     3844.485 
      18            0    -832.6272    1.0142306    1.5142465   0.76422271   0.76422271 0.00037769318 -1.7661464e-05 9.848105e-05    10.861889    16.292849    21.723799     3844.485 
      19            0    -832.6272    1.0142306    1.5142465   0.76422271   0.76422271 -0.0001978265 9.4045599e-06 -5.1344997e-05    10.861889    16.292849    21.723799     3844.485 
      20            0    -832.6272    1.0142306    1.5142465   0.76422271   0.76422271 0.00010842816 -5.3793152e-06 2.7794334e-05    10.861889    16.292849    21.723799     3844.485 
      21            0    -832.6272    1.0142306    1.5142465   0.76422271   0.76422271 -6.0396555e-05 3.2518476e-06 -1.5087497e-05    10.861889    16.292849    21.723799     3844.485 
      22            0    -832.6272    1.0142306    1.5142465   0.76422271   0.76422271 2.8042582e-05 -1.7988162e-06 6.5582995e-06    10.861889    16.292849    21.723799     3844.485 
      23            0    -832.6272    1.0142306    1.5142465   0.76422271   0.76422271 -1.5730412e-05 1.4046952e-06 -3.0674595e-06    10.861889    16.292849    21.723799     3844.485 
      24            0    -832.6272    1.0142306    1.5142465   0.76422271   0.76422271 1.058907e-05 -1.4588365e-06 1.271396e-06    10.861889    16.292849    21.723799     3844.485 
      25            0    -832.6272    1.0142306    1.5142465   0.76422271   0.76422271 -5.0450789e-06 1.0793621e-06 -1.1766401e-08    10.861889    16.292849    21.723799     3844.485 
      26            0    -832.6272    1.0142306    1.5142465   0.76422271   0.76422271 5.4266988e-06 -1.7350141e-06 -8.7467054e-07    10.861889    16.292849    21.723799     3844.485 
      27            0    -832.6272    1.0142306    1.5142465   0.76422271   0.76422271 -3.4321259e-06 1.4801041e-06 1.1448867e-06    10.861889    16.292849    21.723799     3844.485 
      28            0    -832.6272    1.0142306    1.5142465   0.76422271   0.76422271 2.8109633e-06 -1.4581297e-06 -1.3179112e-06    10.861889    16.292849    21.723799     3844.485 
      29            0    -832.6272    1.0142306    1.5142465   0.76422271   0.76422271 -2.7832376e-06 1.6734822e-06 1.6601457e-06    10.861889    16.292849    21.723799     3844.485 
      30            0    -832.6272    1.0142306    1.5142465   0.76422271   0.76422271 2.4424597e-06 -1.6095129e-06 -1.6747255e-06    10.861889    16.292849    21.723799     3844.485 
      31            0    -832.6272    1.0142306    1.5142465   0.76422271   0.76422271 -2.6046558e-06 1.7786714e-06 1.8820553e-06    10.861889    16.292849    21.723799     3844.485 
      32            0    -832.6272    1.0142306    1.5142465   0.76422271   0.76422271 2.4128095e-06 -1.6907109e-06 -1.809806e-06    10.861889    16.292849    21.723799     3844.485 
      33            0    -832.6272    1.0142306    1.5142465   0.76422271   0.76422271 -2.4290255e-06 1.7213501e-06 1.851695e-06    10.861889    16.292849    21.723799     3844.485 
      34            0    -832.6272    1.0142306    1.5142465   0.76422271   0.76422271 1.6582989e-06 -1.1825635e-06 -1.2755294e-06    10.861889    16.292849    21.723799     3844.485 
      35            0    -832.6272    1.0142306    1.5142465   0.76422271   0.76422271 -1.9749463e-06 1.4152144e-06 1.5296794e-06    10.861889    16.292849    21.723799     3844.485 
      36            0    -832.6272    1.0142306    1.5142465   0.76422271   0.76422271 2.2905135e-06 -1.6431779e-06 -1.7769915e-06    10.861889    16.292849    21.723799     3844.485 
      37            0    -832.6272    1.0142306    1.5142465   0.76422271   0.76422271 -2.0550319e-06 1.4750262e-06 1.5955139e-06    10.861889    16.292849    21.723799     3844.485 
      38            0    -832.6272    1.0142306    1.5142465   0.76422271   0.76422271 2.0108246e-06 -1.4438204e-06 -1.5618146e-06    10.861889    16.292849    21.723799     3844.485 
      39            0    -832.6272    1.0142306    1.5142465   0.76422271   0.76422271 -2.4272828e-06 1.7431888e-06 1.885631e-06    10.861889    16.292849    21.723799     3844.485 
      40            0    -832.6272    1.0142306    1.5142465   0.76422271   0.76422271 1.8342996e-06 -1.3175443e-06 -1.4251363e-06    10.861889    16.292849    21.723799     3844.485 
      41            0    -832.6272    1.0142306    1.5142465   0.76422271   0.76422271 -2.0313385e-06 1.4591443e-06 1.5782113e-06    10.861889    16.292849    21.723799     3844.485 
      42            0    -832.6272    1.0142306    1.5142465   0.76422271   0.76422271 2.5091363e-06 -1.8023814e-06 -1.9493487e-06    10.861889    16.292849    21.723799     3844.485 
      43            0    -832.6272    1.0142306    1.5142465   0.76422271   0.76422271 -1.4712545e-06 1.0568096e-06 1.1429304e-06    10.861889    16.292849    21.723799     3844.485 
      44            0    -832.6272    1.0142306    1.5142465   0.76422271   0.76422271 1.248097e-06 -8.9645388e-07 -9.6949727e-07    10.861889    16.292849    21.723799     3844.485 
      45            0    -832.6272    1.0142306    1.5142465   0.76422271   0.76422271 -7.8186635e-07 5.6145244e-07 6.0724265e-07    10.861889    16.292849    21.723799     3844.485 
      46            0    -832.6272    1.0142306    1.5142465   0.76422271   0.76422271 4.5194578e-07 -3.245213e-07 -3.5099854e-07    10.861889    16.292849    21.723799     3844.485 
      47            0    -832.6272    1.0142306    1.5142465   0.76422271   0.76422271 -1.6680196e-07 1.1983625e-07 1.2968279e-07    10.861889    16.292849    21.723799     3844.485 
      48            0    -832.6272    1.0142306    1.5142465   0.76422271   0.76422271 9.8460936e-08 -7.0982519e-08 -7.6932102e-08    10.861889    16.292849    21.723799     3844.485 
      49            0    -832.6272    1.0142306    1.5142465   0.76422271   0.76422271 -3.4093266e-08 2.4808774e-08 2.6923238e-08    10.861889    16.292849    21.723799     3844.485 
      50            0    -832.6272    1.0142306    1.5142465   0.76422271   0.76422271 1.6886802e-08 -1.2650977e-08 -1.3779387e-08    10.861889    16.292849    21.723799     3844.485 
      51            0    -832.6272    1.0142306    1.5142465   0.76422271   0.76422271 -1.0889594e-08 8.697465e-09 9.535481e-09    10.861889    16.292849    21.723799     3844.485 
      52            0    -832.6272    1.0142306    1.5142465   0.76422271   0.76422271 2.3654472e-09 -2.22749e-09 -2.5344584e-09    10.861889    16.292849    21.723799     3844.485 
      53            0    -832.6272    1.0142306    1.5142465   0.76422271   0.76422271 -3.5691401e-10 1.0189328e-09 1.254965e-09    10.861889    16.292849    21.723799     3844.485 
Loop time of 0.01053 on 1 procs for 49 steps with 192 atoms

100.0% CPU use with 1 MPI tasks x no OpenMP threads

Minimization stats:
  Stopping criterion = force tolerance
  Energy initial, next-to-last, final = 
        -832.627199814     -832.627199982     -832.627199982
  Force two-norm initial, final = 0.00299909 7.70725e-11
  Force max component initial, final = 0.000327557 9.5739e-12
  Final line search alpha, max atom move = 1 9.5739e-12
  Iterations, force evaluations = 49 98

MPI task timing breakdown:
Section |  min time  |  avg time  |  max time  |%varavg| %total
---------------------------------------------------------------
Pair    | 0.0091     | 0.0091     | 0.0091     |   0.0 | 86.42
Neigh   | 0          | 0          | 0          |   0.0 |  0.00
Comm    | 0.00041246 | 0.00041246 | 0.00041246 |   0.0 |  3.92
Output  | 0.0004859  | 0.0004859  | 0.0004859  |   0.0 |  4.61
Modify  | 0          | 0          | 0          |   0.0 |  0.00
Other   |            | 0.0005317  |            |       |  5.05

Nlocal:    192 ave 192 max 192 min
Histogram: 1 0 0 0 0 0 0 0 0 0
Nghost:    634 ave 634 max 634 min
Histogram: 1 0 0 0 0 0 0 0 0 0
Neighs:    0 ave 0 max 0 min
Histogram: 1 0 0 0 0 0 0 0 0 0
FullNghs:  5376 ave 5376 max 5376 min
Histogram: 1 0 0 0 0 0 0 0 0 0

Total # of neighbors = 5376
Ave neighs/atom = 28
Neighbor list builds = 0
Dangerous builds = 0

# Obtain new stress tensor

variable tmp equal pxx
variable pxx1 equal ${tmp}
variable pxx1 equal 1.51424647232599
variable tmp equal pyy
variable pyy1 equal ${tmp}
variable pyy1 equal 0.764222708832015
variable tmp equal pzz
variable pzz1 equal ${tmp}
variable pzz1 equal 0.764222708967328
variable tmp equal pxy
variable pxy1 equal ${tmp}
variable pxy1 equal -3.56914013813543e-10
variable tmp equal pxz
variable pxz1 equal ${tmp}
variable pxz1 equal 1.01893284834076e-09
variable tmp equal pyz
variable pyz1 equal ${tmp}
variable pyz1 equal 1.25496495768963e-09

# Compute elastic constant from pressure tensor

variable C1neg equal ${d1}
variable C1neg equal 151.42464723487
variable C2neg equal ${d2}
variable C2neg equal 76.4222708920023
variable C3neg equal ${d3}
variable C3neg equal 76.4222708979792
variable C4neg equal ${d4}
variable C4neg equal 1.48329941541836e-07
variable C5neg equal ${d5}
variable C5neg equal 8.94590543202875e-08
variable C6neg equal ${d6}
variable C6neg equal -9.48539745589652e-08

# Reset box and simulation parameters

clear
box tilt large
read_restart restart.equil
  restoring atom style atomic from restart
  triclinic box = (-0.000949778 -0.00142467 -0.00189956) to (10.8609 16.2914 21.7219) with tilt (0 0 0)
  1 by 1 by 1 MPI processor grid
  pair style sw stores no restart info
  192 atoms
  read_restart CPU = 0.000141144 secs
include potential.mod
# NOTE: This script can be modified for different pair styles
# See in.elastic for more info.

# Choose potential
pair_style	sw
pair_coeff * * Si.sw Si
Reading potential file Si.sw with DATE: 2007-06-11

# Setup neighbor style
neighbor 1.0 nsq
neigh_modify once no every 1 delay 0 check yes

# Setup minimization style
min_style	     cg
min_modify	     dmax ${dmax} line quadratic
min_modify	     dmax 0.01 line quadratic

# Setup output
thermo		1
thermo_style custom step temp pe press pxx pyy pzz pxy pxz pyz lx ly lz vol
thermo_modify norm no

# Positive deformation

variable delta equal ${up}*${len0}
variable delta equal 1e-06*${len0}
variable delta equal 1e-06*10.8618995568104
variable deltaxy equal ${up}*xy
variable deltaxy equal 1e-06*xy
variable deltaxz equal ${up}*xz
variable deltaxz equal 1e-06*xz
variable deltayz equal ${up}*yz
variable deltayz equal 1e-06*yz
if "${dir} == 1" then    "change_box all x delta 0 ${delta} xy delta ${deltaxy} xz delta ${deltaxz} remap units box"
change_box all x delta 0 ${delta} xy delta ${deltaxy} xz delta ${deltaxz} remap units box
change_box all x delta 0 1.08618995568104e-05 xy delta ${deltaxy} xz delta ${deltaxz} remap units box
change_box all x delta 0 1.08618995568104e-05 xy delta 0 xz delta ${deltaxz} remap units box
change_box all x delta 0 1.08618995568104e-05 xy delta 0 xz delta 0 remap units box
  triclinic box = (-0.000949778 -0.00142467 -0.00189956) to (10.861 16.2914 21.7219) with tilt (0 0 0)
  triclinic box = (-0.000949778 -0.00142467 -0.00189956) to (10.861 16.2914 21.7219) with tilt (0 0 0)
  triclinic box = (-0.000949778 -0.00142467 -0.00189956) to (10.861 16.2914 21.7219) with tilt (0 0 0)
if "${dir} == 2" then    "change_box all y delta 0 ${delta} yz delta ${deltayz} remap units box"
if "${dir} == 3" then    "change_box all z delta 0 ${delta} remap units box"
if "${dir} == 4" then    "change_box all yz delta ${delta} remap units box"
if "${dir} == 5" then    "change_box all xz delta ${delta} remap units box"
if "${dir} == 6" then    "change_box all xy delta ${delta} remap units box"

# Relax atoms positions

minimize ${etol} ${ftol} ${maxiter} ${maxeval}
minimize 0 ${ftol} ${maxiter} ${maxeval}
minimize 0 1e-10 ${maxiter} ${maxeval}
minimize 0 1e-10 100 ${maxeval}
minimize 0 1e-10 100 1000
Neighbor list info ...
  update every 1 steps, delay 0 steps, check yes
  max neighbors/atom: 2000, page size: 100000
  master list distance cutoff = 4.77118
  ghost atom cutoff = 4.77118
  1 neighbor lists, perpetual/occasional/extra = 1 0 0
  (1) pair sw, perpetual
      attributes: full, newton on
      pair build: full/nsq
      stencil: none
      bin: none
Per MPI rank memory allocation (min/avg/max) = 4.178 | 4.178 | 4.178 Mbytes
Step Temp PotEng Press Pxx Pyy Pzz Pxy Pxz Pyz Lx Ly Lz Volume 
       4            0    -832.6272   -1.0141636   -1.5141762  -0.76415854  -0.76415604    1.6660522 -0.076088622   0.43726931     10.86191    16.292849    21.723799    3844.4927 
       5            0    -832.6272   -1.0142256    -1.514242  -0.76421736  -0.76421753  -0.39439915  0.018013238  -0.10350809     10.86191    16.292849    21.723799    3844.4927 
       6            0    -832.6272   -1.0142272   -1.5142436  -0.76421893    -0.764219   0.34143146 -0.015595211  0.089605067     10.86191    16.292849    21.723799    3844.4927 
       7            0    -832.6272   -1.0142271   -1.5142432  -0.76421888  -0.76421915  -0.23685391  0.010818989 -0.062159017     10.86191    16.292849    21.723799    3844.4927 
       8            0    -832.6272    -1.014227   -1.5142431  -0.76421891  -0.76421904   0.12221868 -0.0055827986  0.032073589     10.86191    16.292849    21.723799    3844.4927 
       9            0    -832.6272    -1.014227   -1.5142431  -0.76421895  -0.76421901 -0.061069212  0.002789737 -0.016025653     10.86191    16.292849    21.723799    3844.4927 
      10            0    -832.6272    -1.014227   -1.5142431  -0.76421896    -0.764219  0.031065871 -0.0014192828 0.0081516162     10.86191    16.292849    21.723799    3844.4927 
      11            0    -832.6272    -1.014227   -1.5142431  -0.76421897  -0.76421898  -0.02071816 0.00094669357 -0.005435812     10.86191    16.292849    21.723799    3844.4927 
      12            0    -832.6272    -1.014227   -1.5142431  -0.76421898  -0.76421898  0.010753272 -0.00049146712 0.0028209169     10.86191    16.292849    21.723799    3844.4927 
      13            0    -832.6272    -1.014227   -1.5142431  -0.76421898  -0.76421898 -0.0058918001 0.00026938046 -0.0015452717     10.86191    16.292849    21.723799    3844.4927 
      14            0    -832.6272    -1.014227   -1.5142431  -0.76421898  -0.76421898  0.003284496 -0.00015026705 0.00086110704     10.86191    16.292849    21.723799    3844.4927 
      15            0    -832.6272    -1.014227   -1.5142431  -0.76421898  -0.76421898 -0.0016644183 7.6274963e-05 -0.0004359503     10.86191    16.292849    21.723799    3844.4927 
      16            0    -832.6272    -1.014227   -1.5142431  -0.76421898  -0.76421898 0.00099251533 -4.5614599e-05 0.00025951797     10.86191    16.292849    21.723799    3844.4927 
      17            0    -832.6272    -1.014227   -1.5142431  -0.76421898  -0.76421898 -0.00057092313 2.6384939e-05 -0.00014879739     10.86191    16.292849    21.723799    3844.4927 
      18            0    -832.6272    -1.014227   -1.5142431  -0.76421898  -0.76421898 0.00037786882 -1.7669931e-05 9.778716e-05     10.86191    16.292849    21.723799    3844.4927 
      19            0    -832.6272    -1.014227   -1.5142431  -0.76421898  -0.76421898 -0.00019798561 9.412148e-06 -5.0721582e-05     10.86191    16.292849    21.723799    3844.4927 
      20            0    -832.6272    -1.014227   -1.5142431  -0.76421898  -0.76421898 0.00010861518 -5.3880677e-06 2.7072507e-05     10.86191    16.292849    21.723799    3844.4927 
      21            0    -832.6272    -1.014227   -1.5142431  -0.76421898  -0.76421898 -6.0613946e-05 3.2619544e-06 -1.4253598e-05     10.86191    16.292849    21.723799    3844.4927 
      22            0    -832.6272    -1.014227   -1.5142431  -0.76421898  -0.76421898 2.8271817e-05 -1.8094551e-06 5.6821762e-06     10.86191    16.292849    21.723799    3844.4927 
      23            0    -832.6272    -1.014227   -1.5142431  -0.76421898  -0.76421898 -1.603434e-05 1.4186408e-06 -1.9068644e-06     10.86191    16.292849    21.723799    3844.4927 
      24            0    -832.6272    -1.014227   -1.5142431  -0.76421898  -0.76421898 1.1021042e-05 -1.4785179e-06 -3.7816501e-07     10.86191    16.292849    21.723799    3844.4927 
      25            0    -832.6272    -1.014227   -1.5142431  -0.76421898  -0.76421898 -5.4213173e-06 1.0964407e-06 1.4240821e-06     10.86191    16.292849    21.723799    3844.4927 
      26            0    -832.6272    -1.014227   -1.5142431  -0.76421898  -0.76421898 6.0863255e-06 -1.7649183e-06 -3.3901728e-06     10.86191    16.292849    21.723799    3844.4927 
      27            0    -832.6272    -1.014227   -1.5142431  -0.76421898  -0.76421898 -4.0194707e-06 1.5067625e-06 3.3833706e-06     10.86191    16.292849    21.723799    3844.4927 
      28            0    -832.6272    -1.014227   -1.5142431  -0.76421898  -0.76421898 3.4012606e-06 -1.4849653e-06 -3.5672187e-06     10.86191    16.292849    21.723799    3844.4927 
      29            0    -832.6272    -1.014227   -1.5142431  -0.76421898  -0.76421898 -3.469618e-06 1.7045864e-06 4.2756834e-06     10.86191    16.292849    21.723799    3844.4927 
      30            0    -832.6272    -1.014227   -1.5142431  -0.76421898  -0.76421898 3.1073811e-06 -1.6394526e-06 -4.2081604e-06     10.86191    16.292849    21.723799    3844.4927 
      31            0    -832.6272    -1.014227   -1.5142431  -0.76421898  -0.76421898 -3.3412057e-06 1.8115771e-06 4.6886462e-06     10.86191    16.292849    21.723799    3844.4927 
      32            0    -832.6272    -1.014227   -1.5142431  -0.76421898  -0.76421898 3.1137284e-06 -1.7216956e-06 -4.4819194e-06     10.86191    16.292849    21.723799    3844.4927 
      33            0    -832.6272    -1.014227   -1.5142431  -0.76421898  -0.76421898 -3.1424752e-06 1.7525223e-06 4.5733705e-06     10.86191    16.292849    21.723799    3844.4927 
      34            0    -832.6272    -1.014227   -1.5142431  -0.76421898  -0.76421898 2.1478526e-06 -1.2035442e-06 -3.1449771e-06     10.86191    16.292849    21.723799    3844.4927 
      35            0    -832.6272    -1.014227   -1.5142431  -0.76421898  -0.76421898 -2.5599196e-06 1.4397167e-06 3.7660898e-06     10.86191    16.292849    21.723799    3844.4927 
      36            0    -832.6272    -1.014227   -1.5142431  -0.76421898  -0.76421898 2.9641668e-06 -1.6684782e-06 -4.3656518e-06     10.86191    16.292849    21.723799    3844.4927 
      37            0    -832.6272    -1.014227   -1.5142431  -0.76421898  -0.76421898 -2.6493484e-06 1.4918397e-06 3.9042065e-06     10.86191    16.292849    21.723799    3844.4927 
      38            0    -832.6272    -1.014227   -1.5142431  -0.76421898  -0.76421898 2.5717447e-06 -1.4483551e-06 -3.7907602e-06     10.86191    16.292849    21.723799    3844.4927 
      39            0    -832.6272    -1.014227   -1.5142431  -0.76421898  -0.76421898 -3.0267702e-06 1.7046107e-06 4.4617291e-06     10.86191    16.292849    21.723799    3844.4927 
      40            0    -832.6272    -1.014227   -1.5142431  -0.76421898  -0.76421898 2.182481e-06 -1.2290912e-06 -3.2172258e-06     10.86191    16.292849    21.723799    3844.4927 
      41            0    -832.6272    -1.014227   -1.5142431  -0.76421898  -0.76421898 -2.1767284e-06 1.2258505e-06 3.2087759e-06     10.86191    16.292849    21.723799    3844.4927 
      42            0    -832.6272    -1.014227   -1.5142431  -0.76421898  -0.76421898 2.2634038e-06 -1.2747744e-06 -3.3367005e-06     10.86191    16.292849    21.723799    3844.4927 
      43            0    -832.6272    -1.014227   -1.5142431  -0.76421898  -0.76421898 -1.0785174e-06 6.0757388e-07 1.5901816e-06     10.86191    16.292849    21.723799    3844.4927 
      44            0    -832.6272    -1.014227   -1.5142431  -0.76421898  -0.76421898 7.4724402e-07 -4.2110791e-07 -1.1021874e-06     10.86191    16.292849    21.723799    3844.4927 
      45            0    -832.6272    -1.014227   -1.5142431  -0.76421898  -0.76421898 -4.132298e-07 2.3300541e-07 6.1006689e-07     10.86191    16.292849    21.723799    3844.4927 
      46            0    -832.6272    -1.014227   -1.5142431  -0.76421898  -0.76421898 2.2231769e-07 -1.2550592e-07 -3.2895137e-07     10.86191    16.292849    21.723799    3844.4927 
      47            0    -832.6272    -1.014227   -1.5142431  -0.76421898  -0.76421898 -7.8905938e-08 4.4718351e-08 1.1763839e-07     10.86191    16.292849    21.723799    3844.4927 
      48            0    -832.6272    -1.014227   -1.5142431  -0.76421898  -0.76421898 4.5603379e-08 -2.6160302e-08 -6.979382e-08     10.86191    16.292849    21.723799    3844.4927 
      49            0    -832.6272    -1.014227   -1.5142431  -0.76421898  -0.76421898 -1.5303805e-08 9.0898248e-09 2.4732779e-08     10.86191    16.292849    21.723799    3844.4927 
      50            0    -832.6272    -1.014227   -1.5142431  -0.76421898  -0.76421898 7.1957021e-09 -4.6393799e-09 -1.3060801e-08     10.86191    16.292849    21.723799    3844.4927 
      51            0    -832.6272    -1.014227   -1.5142431  -0.76421898  -0.76421898 -4.1456202e-09 3.1980121e-09 9.5828385e-09     10.86191    16.292849    21.723799    3844.4927 
      52            0    -832.6272    -1.014227   -1.5142431  -0.76421898  -0.76421898 5.2563606e-10 -7.4682415e-10 -2.817717e-09     10.86191    16.292849    21.723799    3844.4927 
      53            0    -832.6272    -1.014227   -1.5142431  -0.76421898  -0.76421898 5.2930119e-10 1.7225323e-10 1.851874e-09     10.86191    16.292849    21.723799    3844.4927 
Loop time of 0.0104499 on 1 procs for 49 steps with 192 atoms

99.0% CPU use with 1 MPI tasks x no OpenMP threads

Minimization stats:
  Stopping criterion = force tolerance
  Energy initial, next-to-last, final = 
        -832.627199814     -832.627199982     -832.627199982
  Force two-norm initial, final = 0.00299909 7.70908e-11
  Force max component initial, final = 0.000327556 9.48534e-12
  Final line search alpha, max atom move = 1 9.48534e-12
  Iterations, force evaluations = 49 98

MPI task timing breakdown:
Section |  min time  |  avg time  |  max time  |%varavg| %total
---------------------------------------------------------------
Pair    | 0.0091121  | 0.0091121  | 0.0091121  |   0.0 | 87.20
Neigh   | 0          | 0          | 0          |   0.0 |  0.00
Comm    | 0.00037479 | 0.00037479 | 0.00037479 |   0.0 |  3.59
Output  | 0.00048494 | 0.00048494 | 0.00048494 |   0.0 |  4.64
Modify  | 0          | 0          | 0          |   0.0 |  0.00
Other   |            | 0.000478   |            |       |  4.57

Nlocal:    192 ave 192 max 192 min
Histogram: 1 0 0 0 0 0 0 0 0 0
Nghost:    634 ave 634 max 634 min
Histogram: 1 0 0 0 0 0 0 0 0 0
Neighs:    0 ave 0 max 0 min
Histogram: 1 0 0 0 0 0 0 0 0 0
FullNghs:  5376 ave 5376 max 5376 min
Histogram: 1 0 0 0 0 0 0 0 0 0

Total # of neighbors = 5376
Ave neighs/atom = 28
Neighbor list builds = 0
Dangerous builds = 0

# Obtain new stress tensor

variable tmp equal pe
variable e1 equal ${tmp}
variable e1 equal -832.62719998231
variable tmp equal press
variable p1 equal ${tmp}
variable p1 equal -1.01422702224936
variable tmp equal pxx
variable pxx1 equal ${tmp}
variable pxx1 equal -1.51424311286697
variable tmp equal pyy
variable pyy1 equal ${tmp}
variable pyy1 equal -0.764218977009755
variable tmp equal pzz
variable pzz1 equal ${tmp}
variable pzz1 equal -0.764218976871352
variable tmp equal pxy
variable pxy1 equal ${tmp}
variable pxy1 equal 5.29301191966325e-10
variable tmp equal pxz
variable pxz1 equal ${tmp}
variable pxz1 equal 1.72253232966327e-10
variable tmp equal pyz
variable pyz1 equal ${tmp}
variable pyz1 equal 1.85187397835973e-09

# Compute elastic constant from pressure tensor

variable C1pos equal ${d1}
variable C1pos equal 151.424311284426
variable C2pos equal ${d2}
variable C2pos equal 76.4218976921747
variable C3pos equal ${d3}
variable C3pos equal 76.4218976858889
variable C4pos equal ${d4}
variable C4pos equal -2.08020843608846e-07
variable C5pos equal ${d5}
variable C5pos equal -4.7910927828442e-09
variable C6pos equal ${d6}
variable C6pos equal 6.2324539809784e-09

# Combine positive and negative

variable C1${dir} equal 0.5*(${C1neg}+${C1pos})
variable C11 equal 0.5*(${C1neg}+${C1pos})
variable C11 equal 0.5*(151.42464723487+${C1pos})
variable C11 equal 0.5*(151.42464723487+151.424311284426)
variable C2${dir} equal 0.5*(${C2neg}+${C2pos})
variable C21 equal 0.5*(${C2neg}+${C2pos})
variable C21 equal 0.5*(76.4222708920023+${C2pos})
variable C21 equal 0.5*(76.4222708920023+76.4218976921747)
variable C3${dir} equal 0.5*(${C3neg}+${C3pos})
variable C31 equal 0.5*(${C3neg}+${C3pos})
variable C31 equal 0.5*(76.4222708979792+${C3pos})
variable C31 equal 0.5*(76.4222708979792+76.4218976858889)
variable C4${dir} equal 0.5*(${C4neg}+${C4pos})
variable C41 equal 0.5*(${C4neg}+${C4pos})
variable C41 equal 0.5*(1.48329941541836e-07+${C4pos})
variable C41 equal 0.5*(1.48329941541836e-07+-2.08020843608846e-07)
variable C5${dir} equal 0.5*(${C5neg}+${C5pos})
variable C51 equal 0.5*(${C5neg}+${C5pos})
variable C51 equal 0.5*(8.94590543202875e-08+${C5pos})
variable C51 equal 0.5*(8.94590543202875e-08+-4.7910927828442e-09)
variable C6${dir} equal 0.5*(${C6neg}+${C6pos})
variable C61 equal 0.5*(${C6neg}+${C6pos})
variable C61 equal 0.5*(-9.48539745589652e-08+${C6pos})
variable C61 equal 0.5*(-9.48539745589652e-08+6.2324539809784e-09)

# Delete dir to make sure it is not reused

variable dir delete

# uyy Perturbation

variable dir equal 2
include displace.mod
# NOTE: This script should not need to be
# modified. See in.elastic for more info.
#
# Find which reference length to use

if "${dir} == 1" then    "variable len0 equal ${lx0}"
if "${dir} == 2" then    "variable len0 equal ${ly0}"
variable len0 equal ${ly0}
variable len0 equal 16.2928493352156
if "${dir} == 3" then    "variable len0 equal ${lz0}"
if "${dir} == 4" then    "variable len0 equal ${lz0}"
if "${dir} == 5" then    "variable len0 equal ${lz0}"
if "${dir} == 6" then    "variable len0 equal ${ly0}"

# Reset box and simulation parameters

clear
box tilt large
read_restart restart.equil
  restoring atom style atomic from restart
  triclinic box = (-0.000949778 -0.00142467 -0.00189956) to (10.8609 16.2914 21.7219) with tilt (0 0 0)
  1 by 1 by 1 MPI processor grid
  pair style sw stores no restart info
  192 atoms
  read_restart CPU = 0.000105143 secs
include potential.mod
# NOTE: This script can be modified for different pair styles
# See in.elastic for more info.

# Choose potential
pair_style	sw
pair_coeff * * Si.sw Si
Reading potential file Si.sw with DATE: 2007-06-11

# Setup neighbor style
neighbor 1.0 nsq
neigh_modify once no every 1 delay 0 check yes

# Setup minimization style
min_style	     cg
min_modify	     dmax ${dmax} line quadratic
min_modify	     dmax 0.01 line quadratic

# Setup output
thermo		1
thermo_style custom step temp pe press pxx pyy pzz pxy pxz pyz lx ly lz vol
thermo_modify norm no

# Negative deformation

variable delta equal -${up}*${len0}
variable delta equal -1e-06*${len0}
variable delta equal -1e-06*16.2928493352156
variable deltaxy equal -${up}*xy
variable deltaxy equal -1e-06*xy
variable deltaxz equal -${up}*xz
variable deltaxz equal -1e-06*xz
variable deltayz equal -${up}*yz
variable deltayz equal -1e-06*yz
if "${dir} == 1" then    "change_box all x delta 0 ${delta} xy delta ${deltaxy} xz delta ${deltaxz} remap units box"
if "${dir} == 2" then    "change_box all y delta 0 ${delta} yz delta ${deltayz} remap units box"
change_box all y delta 0 ${delta} yz delta ${deltayz} remap units box
change_box all y delta 0 -1.62928493352156e-05 yz delta ${deltayz} remap units box
change_box all y delta 0 -1.62928493352156e-05 yz delta -0 remap units box
  triclinic box = (-0.000949778 -0.00142467 -0.00189956) to (10.8609 16.2914 21.7219) with tilt (0 0 0)
  triclinic box = (-0.000949778 -0.00142467 -0.00189956) to (10.8609 16.2914 21.7219) with tilt (0 0 0)
if "${dir} == 3" then    "change_box all z delta 0 ${delta} remap units box"
if "${dir} == 4" then    "change_box all yz delta ${delta} remap units box"
if "${dir} == 5" then    "change_box all xz delta ${delta} remap units box"
if "${dir} == 6" then    "change_box all xy delta ${delta} remap units box"

# Relax atoms positions

minimize ${etol} ${ftol} ${maxiter} ${maxeval}
minimize 0 ${ftol} ${maxiter} ${maxeval}
minimize 0 1e-10 ${maxiter} ${maxeval}
minimize 0 1e-10 100 ${maxeval}
minimize 0 1e-10 100 1000
Neighbor list info ...
  update every 1 steps, delay 0 steps, check yes
  max neighbors/atom: 2000, page size: 100000
  master list distance cutoff = 4.77118
  ghost atom cutoff = 4.77118
  1 neighbor lists, perpetual/occasional/extra = 1 0 0
  (1) pair sw, perpetual
      attributes: full, newton on
      pair build: full/nsq
      stencil: none
      bin: none
Per MPI rank memory allocation (min/avg/max) = 4.178 | 4.178 | 4.178 Mbytes
Step Temp PotEng Press Pxx Pyy Pzz Pxy Pxz Pyz Lx Ly Lz Volume 
       4            0    -832.6272     1.014294   0.76428958    1.5143069   0.76428565    1.6660607 -0.076089002   0.43727149      10.8619    16.292833    21.723799     3844.485 
       5            0    -832.6272     1.014232   0.76422381    1.5142481   0.76422415  -0.39440017  0.018013318  -0.10350855      10.8619    16.292833    21.723799     3844.485 
       6            0    -832.6272    1.0142305   0.76422225    1.5142465   0.76422268   0.34143209 -0.015595293   0.08960554      10.8619    16.292833    21.723799     3844.485 
       7            0    -832.6272    1.0142306    0.7642226    1.5142466   0.76422254  -0.23685468  0.010819085 -0.062159571      10.8619    16.292833    21.723799     3844.485 
       8            0    -832.6272    1.0142306   0.76422272    1.5142465   0.76422264   0.12221917 -0.0055828812  0.032074063      10.8619    16.292833    21.723799     3844.485 
       9            0    -832.6272    1.0142306   0.76422269    1.5142465   0.76422268 -0.061069488 0.0027898043 -0.016026039      10.8619    16.292833    21.723799     3844.485 
      10            0    -832.6272    1.0142306   0.76422269    1.5142465   0.76422268     0.031066 -0.0014193407 0.0081519489      10.8619    16.292833    21.723799     3844.485 
      11            0    -832.6272    1.0142306    0.7642227    1.5142465   0.76422271 -0.020718247 0.00094675699 -0.0054361753      10.8619    16.292833    21.723799     3844.485 
      12            0    -832.6272    1.0142306    0.7642227    1.5142465    0.7642227   0.01075332 -0.00049151825 0.0028212093      10.8619    16.292833    21.723799     3844.485 
      13            0    -832.6272    1.0142306    0.7642227    1.5142465   0.76422271 -0.0058918155 0.00026942331 -0.0015455159      10.8619    16.292833    21.723799     3844.485 
      14            0    -832.6272    1.0142306    0.7642227    1.5142465   0.76422271  0.003284493 -0.00015030601 0.00086132846      10.8619    16.292833    21.723799     3844.485 
      15            0    -832.6272    1.0142306    0.7642227    1.5142465   0.76422271 -0.0016643921 7.6313237e-05 -0.00043616753      10.8619    16.292833    21.723799     3844.485 
      16            0    -832.6272    1.0142306   0.76422271    1.5142465   0.76422271 0.00099247135 -4.5657175e-05 0.00025975938      10.8619    16.292833    21.723799     3844.485 
      17            0    -832.6272    1.0142306   0.76422271    1.5142465   0.76422271 -0.00057086662 2.6431002e-05 -0.00014905867      10.8619    16.292833    21.723799     3844.485 
      18            0    -832.6272    1.0142306   0.76422271    1.5142465   0.76422271 0.00037778511 -1.7731156e-05 9.8134937e-05      10.8619    16.292833    21.723799     3844.485 
      19            0    -832.6272    1.0142306   0.76422271    1.5142465   0.76422271 -0.00019790759 9.4670147e-06 -5.1033338e-05      10.8619    16.292833    21.723799     3844.485 
      20            0    -832.6272    1.0142306   0.76422271    1.5142465   0.76422271 0.00010852119 -5.4514321e-06 2.7432768e-05      10.8619    16.292833    21.723799     3844.485 
      21            0    -832.6272    1.0142306   0.76422271    1.5142465   0.76422271 -6.0502956e-05 3.3350289e-06 -1.4669368e-05      10.8619    16.292833    21.723799     3844.485 
      22            0    -832.6272    1.0142306   0.76422271    1.5142465   0.76422271 2.8153987e-05 -1.8863042e-06 6.1187333e-06      10.8619    16.292833    21.723799     3844.485 
      23            0    -832.6272    1.0142306   0.76422271    1.5142465   0.76422271 -1.5877515e-05 1.5205954e-06 -2.4849178e-06      10.8619    16.292833    21.723799     3844.485 
      24            0    -832.6272    1.0142306   0.76422271    1.5142465   0.76422271 1.0797919e-05 -1.6235202e-06 4.4327206e-07      10.8619    16.292833    21.723799     3844.485 
      25            0    -832.6272    1.0142306   0.76422271    1.5142465   0.76422271 -5.2268649e-06 1.2226834e-06 7.0909757e-07      10.8619    16.292833    21.723799     3844.485 
      26            0    -832.6272    1.0142306   0.76422271    1.5142465   0.76422271 5.7452219e-06 -1.9861111e-06 -2.1376144e-06      10.8619    16.292833    21.723799     3844.485 
      27            0    -832.6272    1.0142306   0.76422271    1.5142465   0.76422271 -3.7156483e-06 1.7036186e-06 2.2687989e-06      10.8619    16.292833    21.723799     3844.485 
      28            0    -832.6272    1.0142306   0.76422271    1.5142465   0.76422271 3.0958474e-06 -1.6827122e-06 -2.4472174e-06      10.8619    16.292833    21.723799     3844.485 
      29            0    -832.6272    1.0142306   0.76422271    1.5142465   0.76422271 -3.1145631e-06 1.9345556e-06 2.9732583e-06      10.8619    16.292833    21.723799     3844.485 
      30            0    -832.6272    1.0142306   0.76422271    1.5142465   0.76422271 2.7635447e-06 -1.8622782e-06 -2.9466031e-06      10.8619    16.292833    21.723799     3844.485 
      31            0    -832.6272    1.0142306   0.76422271    1.5142465   0.76422271 -2.9604552e-06 2.0584336e-06 3.2911036e-06      10.8619    16.292833    21.723799     3844.485 
      32            0    -832.6272    1.0142306   0.76422271    1.5142465   0.76422271 2.7514735e-06 -1.9567305e-06 -3.1514531e-06      10.8619    16.292833    21.723799     3844.485 
      33            0    -832.6272    1.0142306   0.76422271    1.5142465   0.76422271 -2.7738027e-06 1.9920618e-06 3.2184418e-06      10.8619    16.292833    21.723799     3844.485 
      34            0    -832.6272    1.0142306   0.76422271    1.5142465   0.76422271 1.8951037e-06 -1.3682423e-06 -2.2145826e-06      10.8619    16.292833    21.723799     3844.485 
      35            0    -832.6272    1.0142306   0.76422271    1.5142465   0.76422271 -2.2582761e-06 1.637107e-06 2.6535176e-06      10.8619    16.292833    21.723799     3844.485 
      36            0    -832.6272    1.0142306   0.76422271    1.5142465   0.76422271 2.6172572e-06 -1.8992937e-06 -3.0794528e-06      10.8619    16.292833    21.723799     3844.485 
      37            0    -832.6272    1.0142306   0.76422271    1.5142465   0.76422271 -2.3442317e-06 1.7020967e-06 2.7599403e-06      10.8619    16.292833    21.723799     3844.485 
      38            0    -832.6272    1.0142306   0.76422271    1.5142465   0.76422271 2.2856666e-06 -1.6600185e-06 -2.6917411e-06      10.8619    16.292833    21.723799     3844.485 
      39            0    -832.6272    1.0142306   0.76422271    1.5142465   0.76422271 -2.7272849e-06 1.9810537e-06 3.2121367e-06      10.8619    16.292833    21.723799     3844.485 
      40            0    -832.6272    1.0142306   0.76422271    1.5142465   0.76422271 2.0163005e-06 -1.4647446e-06 -2.3748497e-06      10.8619    16.292833    21.723799     3844.485 
      41            0    -832.6272    1.0142306   0.76422271    1.5142465   0.76422271 -2.1221038e-06 1.5416883e-06 2.4995268e-06      10.8619    16.292833    21.723799     3844.485 
      42            0    -832.6272    1.0142306   0.76422271    1.5142465   0.76422271 2.3964072e-06 -1.7410929e-06 -2.8227979e-06      10.8619    16.292833    21.723799     3844.485 
      43            0    -832.6272    1.0142306   0.76422271    1.5142465   0.76422271 -1.2491402e-06 9.0757458e-07 1.4714735e-06      10.8619    16.292833    21.723799     3844.485 
      44            0    -832.6272    1.0142306   0.76422271    1.5142465   0.76422271 9.3539899e-07 -6.7965039e-07 -1.1019245e-06      10.8619    16.292833    21.723799     3844.485 
      45            0    -832.6272    1.0142306   0.76422271    1.5142465   0.76422271 -5.4022956e-07 3.9257104e-07 6.3645716e-07      10.8619    16.292833    21.723799     3844.485 
      46            0    -832.6272    1.0142306   0.76422271    1.5142465   0.76422271 2.9775315e-07 -2.163539e-07 -3.5083046e-07      10.8619    16.292833    21.723799     3844.485 
      47            0    -832.6272    1.0142306   0.76422271    1.5142465   0.76422271 -1.0733966e-07 7.7856858e-08 1.2637907e-07      10.8619    16.292833    21.723799     3844.485 
      48            0    -832.6272    1.0142306   0.76422271    1.5142465   0.76422271 6.3270331e-08 -4.5642243e-08 -7.4236774e-08      10.8619    16.292833    21.723799     3844.485 
      49            0    -832.6272    1.0142306   0.76422271    1.5142465   0.76422271 -2.2016781e-08 1.5778081e-08 2.5739167e-08      10.8619    16.292833    21.723799     3844.485 
      50            0    -832.6272    1.0142306   0.76422271    1.5142465   0.76422271 1.1344497e-08 -7.9209429e-09 -1.2914373e-08      10.8619    16.292833    21.723799     3844.485 
      51            0    -832.6272    1.0142306   0.76422271    1.5142465   0.76422271 -7.9998988e-09 5.3409956e-09 8.5312193e-09      10.8619    16.292833    21.723799     3844.485 
      52            0    -832.6272    1.0142306   0.76422271    1.5142465   0.76422271 2.1048171e-09 -1.3159213e-09 -1.989615e-09      10.8619    16.292833    21.723799     3844.485 
      53            0    -832.6272    1.0142306   0.76422271    1.5142465   0.76422271 -1.0104762e-09 5.6794965e-10 5.8576952e-10      10.8619    16.292833    21.723799     3844.485 
Loop time of 0.010545 on 1 procs for 49 steps with 192 atoms

88.9% CPU use with 1 MPI tasks x no OpenMP threads

Minimization stats:
  Stopping criterion = force tolerance
  Energy initial, next-to-last, final = 
        -832.627199814     -832.627199982     -832.627199982
  Force two-norm initial, final = 0.00299909 7.71176e-11
  Force max component initial, final = 0.000327557 9.52026e-12
  Final line search alpha, max atom move = 1 9.52026e-12
  Iterations, force evaluations = 49 98

MPI task timing breakdown:
Section |  min time  |  avg time  |  max time  |%varavg| %total
---------------------------------------------------------------
Pair    | 0.0091341  | 0.0091341  | 0.0091341  |   0.0 | 86.62
Neigh   | 0          | 0          | 0          |   0.0 |  0.00
Comm    | 0.00040245 | 0.00040245 | 0.00040245 |   0.0 |  3.82
Output  | 0.00049973 | 0.00049973 | 0.00049973 |   0.0 |  4.74
Modify  | 0          | 0          | 0          |   0.0 |  0.00
Other   |            | 0.0005088  |            |       |  4.82

Nlocal:    192 ave 192 max 192 min
Histogram: 1 0 0 0 0 0 0 0 0 0
Nghost:    634 ave 634 max 634 min
Histogram: 1 0 0 0 0 0 0 0 0 0
Neighs:    0 ave 0 max 0 min
Histogram: 1 0 0 0 0 0 0 0 0 0
FullNghs:  5376 ave 5376 max 5376 min
Histogram: 1 0 0 0 0 0 0 0 0 0

Total # of neighbors = 5376
Ave neighs/atom = 28
Neighbor list builds = 0
Dangerous builds = 0

# Obtain new stress tensor

variable tmp equal pxx
variable pxx1 equal ${tmp}
variable pxx1 equal 0.764222708901933
variable tmp equal pyy
variable pyy1 equal ${tmp}
variable pyy1 equal 1.51424647206429
variable tmp equal pzz
variable pzz1 equal ${tmp}
variable pzz1 equal 0.764222708898192
variable tmp equal pxy
variable pxy1 equal ${tmp}
variable pxy1 equal -1.01047621161627e-09
variable tmp equal pxz
variable pxz1 equal ${tmp}
variable pxz1 equal 5.67949648374783e-10
variable tmp equal pyz
variable pyz1 equal ${tmp}
variable pyz1 equal 5.85769520045826e-10

# Compute elastic constant from pressure tensor

variable C1neg equal ${d1}
variable C1neg equal 76.4222708924643
variable C2neg equal ${d2}
variable C2neg equal 151.42464721523
variable C3neg equal ${d3}
variable C3neg equal 76.4222708910656
variable C4neg equal ${d4}
variable C4neg equal 8.14103977774555e-08
variable C5neg equal ${d5}
variable C5neg equal 4.43607343236898e-08
variable C6neg equal ${d6}
variable C6neg equal -1.60210194339238e-07

# Reset box and simulation parameters

clear
box tilt large
read_restart restart.equil
  restoring atom style atomic from restart
  triclinic box = (-0.000949778 -0.00142467 -0.00189956) to (10.8609 16.2914 21.7219) with tilt (0 0 0)
  1 by 1 by 1 MPI processor grid
  pair style sw stores no restart info
  192 atoms
  read_restart CPU = 0.000138998 secs
include potential.mod
# NOTE: This script can be modified for different pair styles
# See in.elastic for more info.

# Choose potential
pair_style	sw
pair_coeff * * Si.sw Si
Reading potential file Si.sw with DATE: 2007-06-11

# Setup neighbor style
neighbor 1.0 nsq
neigh_modify once no every 1 delay 0 check yes

# Setup minimization style
min_style	     cg
min_modify	     dmax ${dmax} line quadratic
min_modify	     dmax 0.01 line quadratic

# Setup output
thermo		1
thermo_style custom step temp pe press pxx pyy pzz pxy pxz pyz lx ly lz vol
thermo_modify norm no

# Positive deformation

variable delta equal ${up}*${len0}
variable delta equal 1e-06*${len0}
variable delta equal 1e-06*16.2928493352156
variable deltaxy equal ${up}*xy
variable deltaxy equal 1e-06*xy
variable deltaxz equal ${up}*xz
variable deltaxz equal 1e-06*xz
variable deltayz equal ${up}*yz
variable deltayz equal 1e-06*yz
if "${dir} == 1" then    "change_box all x delta 0 ${delta} xy delta ${deltaxy} xz delta ${deltaxz} remap units box"
if "${dir} == 2" then    "change_box all y delta 0 ${delta} yz delta ${deltayz} remap units box"
change_box all y delta 0 ${delta} yz delta ${deltayz} remap units box
change_box all y delta 0 1.62928493352156e-05 yz delta ${deltayz} remap units box
change_box all y delta 0 1.62928493352156e-05 yz delta 0 remap units box
  triclinic box = (-0.000949778 -0.00142467 -0.00189956) to (10.8609 16.2914 21.7219) with tilt (0 0 0)
  triclinic box = (-0.000949778 -0.00142467 -0.00189956) to (10.8609 16.2914 21.7219) with tilt (0 0 0)
if "${dir} == 3" then    "change_box all z delta 0 ${delta} remap units box"
if "${dir} == 4" then    "change_box all yz delta ${delta} remap units box"
if "${dir} == 5" then    "change_box all xz delta ${delta} remap units box"
if "${dir} == 6" then    "change_box all xy delta ${delta} remap units box"

# Relax atoms positions

minimize ${etol} ${ftol} ${maxiter} ${maxeval}
minimize 0 ${ftol} ${maxiter} ${maxeval}
minimize 0 1e-10 ${maxiter} ${maxeval}
minimize 0 1e-10 100 ${maxeval}
minimize 0 1e-10 100 1000
Neighbor list info ...
  update every 1 steps, delay 0 steps, check yes
  max neighbors/atom: 2000, page size: 100000
  master list distance cutoff = 4.77118
  ghost atom cutoff = 4.77118
  1 neighbor lists, perpetual/occasional/extra = 1 0 0
  (1) pair sw, perpetual
      attributes: full, newton on
      pair build: full/nsq
      stencil: none
      bin: none
Per MPI rank memory allocation (min/avg/max) = 4.178 | 4.178 | 4.178 Mbytes
Step Temp PotEng Press Pxx Pyy Pzz Pxy Pxz Pyz Lx Ly Lz Volume 
       4            0    -832.6272   -1.0141636  -0.76415211   -1.5141827  -0.76415604    1.6660522 -0.076088632   0.43726925      10.8619    16.292866    21.723799    3844.4927 
       5            0    -832.6272   -1.0142256  -0.76421788   -1.5142415  -0.76421753  -0.39439912  0.018013204  -0.10350828      10.8619    16.292866    21.723799    3844.4927 
       6            0    -832.6272   -1.0142272  -0.76421943   -1.5142431    -0.764219   0.34143154 -0.015595161  0.089605396      10.8619    16.292866    21.723799    3844.4927 
       7            0    -832.6272   -1.0142271  -0.76421909    -1.514243  -0.76421915  -0.23685394  0.010818928 -0.062159379      10.8619    16.292866    21.723799    3844.4927 
       8            0    -832.6272    -1.014227  -0.76421897    -1.514243  -0.76421904   0.12221861 -0.0055827353  0.032073915      10.8619    16.292866    21.723799    3844.4927 
       9            0    -832.6272    -1.014227    -0.764219   -1.5142431  -0.76421901 -0.061069193 0.0027896814 -0.016025962      10.8619    16.292866    21.723799    3844.4927 
      10            0    -832.6272    -1.014227  -0.76421899   -1.5142431    -0.764219  0.031065808 -0.0014192278 0.0081518984      10.8619    16.292866    21.723799    3844.4927 
      11            0    -832.6272    -1.014227  -0.76421898   -1.5142431  -0.76421898 -0.020718063 0.00094662981 -0.0054361269      10.8619    16.292866    21.723799    3844.4927 
      12            0    -832.6272    -1.014227  -0.76421898   -1.5142431  -0.76421898  0.010753175 -0.00049141394 0.0028211714      10.8619    16.292866    21.723799    3844.4927 
      13            0    -832.6272    -1.014227  -0.76421898   -1.5142431  -0.76421898 -0.0058917256 0.00026933526 -0.0015454922      10.8619    16.292866    21.723799    3844.4927 
      14            0    -832.6272    -1.014227  -0.76421898   -1.5142431  -0.76421898 0.0032844278 -0.00015022515 0.0008613113      10.8619    16.292866    21.723799    3844.4927 
      15            0    -832.6272    -1.014227  -0.76421898   -1.5142431  -0.76421898 -0.0016643553 7.6232749e-05 -0.00043615797      10.8619    16.292866    21.723799    3844.4927 
      16            0    -832.6272    -1.014227  -0.76421898   -1.5142431  -0.76421898 0.00099244838 -4.5566979e-05 0.00025975363      10.8619    16.292866    21.723799    3844.4927 
      17            0    -832.6272    -1.014227  -0.76421898   -1.5142431  -0.76421898 -0.00057085219 2.633289e-05 -0.00014905536      10.8619    16.292866    21.723799    3844.4927 
      18            0    -832.6272    -1.014227  -0.76421898   -1.5142431  -0.76421898 0.00037777661 -1.7600141e-05 9.8133509e-05      10.8619    16.292866    21.723799    3844.4927 
      19            0    -832.6272    -1.014227  -0.76421898   -1.5142431  -0.76421898 -0.00019790438 9.3493906e-06 -5.1033388e-05      10.8619    16.292866    21.723799    3844.4927 
      20            0    -832.6272    -1.014227  -0.76421898   -1.5142431  -0.76421898 0.00010852216 -5.3152617e-06 2.7434185e-05      10.8619    16.292866    21.723799    3844.4927 
      21            0    -832.6272    -1.014227  -0.76421898   -1.5142431  -0.76421898 -6.0507581e-05 3.1777171e-06 -1.467189e-05      10.8619    16.292866    21.723799    3844.4927 
      22            0    -832.6272    -1.014227  -0.76421898   -1.5142431  -0.76421898 2.816044e-05 -1.7209802e-06 6.1218201e-06      10.8619    16.292866    21.723799    3844.4927 
      23            0    -832.6272    -1.014227  -0.76421898   -1.5142431  -0.76421898 -1.5887416e-05 1.3015906e-06 -2.4894586e-06      10.8619    16.292866    21.723799    3844.4927 
      24            0    -832.6272    -1.014227  -0.76421898   -1.5142431  -0.76421898 1.0812657e-05 -1.3122393e-06 4.4996637e-07      10.8619    16.292866    21.723799    3844.4927 
      25            0    -832.6272    -1.014227  -0.76421898   -1.5142431  -0.76421898 -5.2399246e-06 9.5178441e-07 7.0328031e-07      10.8619    16.292866    21.723799    3844.4927 
      26            0    -832.6272    -1.014227  -0.76421898   -1.5142431  -0.76421898 5.7684644e-06 -1.5115948e-06 -2.1274529e-06      10.8619    16.292866    21.723799    3844.4927 
      27            0    -832.6272    -1.014227  -0.76421898   -1.5142431  -0.76421898 -3.7364437e-06 1.2814311e-06 2.2597839e-06      10.8619    16.292866    21.723799    3844.4927 
      28            0    -832.6272    -1.014227  -0.76421898   -1.5142431  -0.76421898 3.1167865e-06 -1.2586159e-06 -2.4382656e-06      10.8619    16.292866    21.723799    3844.4927 
      29            0    -832.6272    -1.014227  -0.76421898   -1.5142431  -0.76421898 -3.138834e-06 1.4415375e-06 2.9629528e-06      10.8619    16.292866    21.723799    3844.4927 
      30            0    -832.6272    -1.014227  -0.76421898   -1.5142431  -0.76421898 2.7869015e-06 -1.3847711e-06 -2.9366825e-06      10.8619    16.292866    21.723799    3844.4927 
      31            0    -832.6272    -1.014227  -0.76421898   -1.5142431  -0.76421898 -2.9862026e-06 1.5294834e-06 3.2801568e-06      10.8619    16.292866    21.723799    3844.4927 
      32            0    -832.6272    -1.014227  -0.76421898   -1.5142431  -0.76421898 2.7757024e-06 -1.4531679e-06 -3.1409166e-06      10.8619    16.292866    21.723799    3844.4927 
      33            0    -832.6272    -1.014227  -0.76421898   -1.5142431  -0.76421898 -2.7982449e-06 1.4791295e-06 3.2076578e-06      10.8619    16.292866    21.723799    3844.4927 
      34            0    -832.6272    -1.014227  -0.76421898   -1.5142431  -0.76421898 1.9118598e-06 -1.0160057e-06 -2.2072119e-06      10.8619    16.292866    21.723799    3844.4927 
      35            0    -832.6272    -1.014227  -0.76421898   -1.5142431  -0.76421898 -2.2782649e-06 1.2158618e-06 2.6447243e-06      10.8619    16.292866    21.723799    3844.4927 
      36            0    -832.6272    -1.014227  -0.76421898   -1.5142431  -0.76421898 2.6408367e-06 -1.410787e-06 -3.0696318e-06      10.8619    16.292866    21.723799    3844.4927 
      37            0    -832.6272    -1.014227  -0.76421898   -1.5142431  -0.76421898 -2.3660193e-06 1.2646519e-06 2.7519865e-06      10.8619    16.292866    21.723799    3844.4927 
      38            0    -832.6272    -1.014227  -0.76421898   -1.5142431  -0.76421898 2.3083753e-06 -1.2341758e-06 -2.6857007e-06      10.8619    16.292866    21.723799    3844.4927 
      39            0    -832.6272    -1.014227  -0.76421898   -1.5142431  -0.76421898 -2.7601031e-06 1.4758129e-06 3.2115263e-06      10.8619    16.292866    21.723799    3844.4927 
      40            0    -832.6272    -1.014227  -0.76421898   -1.5142431  -0.76421898 2.0482473e-06 -1.0952495e-06 -2.3834729e-06      10.8619    16.292866    21.723799    3844.4927 
      41            0    -832.6272    -1.014227  -0.76421898   -1.5142431  -0.76421898 -2.1741091e-06 1.1624484e-06 2.5300213e-06      10.8619    16.292866    21.723799    3844.4927 
      42            0    -832.6272    -1.014227  -0.76421898   -1.5142431  -0.76421898 2.4901966e-06 -1.3312824e-06 -2.8978258e-06      10.8619    16.292866    21.723799    3844.4927 
      43            0    -832.6272    -1.014227  -0.76421898   -1.5142431  -0.76421898 -1.3202499e-06 7.0566537e-07 1.5362357e-06      10.8619    16.292866    21.723799    3844.4927 
      44            0    -832.6272    -1.014227  -0.76421898   -1.5142431  -0.76421898 1.0048851e-06 -5.3695708e-07 -1.1691545e-06      10.8619    16.292866    21.723799    3844.4927 
      45            0    -832.6272    -1.014227  -0.76421898   -1.5142431  -0.76421898 -5.8613974e-07 3.1301946e-07 6.818119e-07      10.8619    16.292866    21.723799    3844.4927 
      46            0    -832.6272    -1.014227  -0.76421898   -1.5142431  -0.76421898 3.2496898e-07 -1.7334233e-07 -3.7778939e-07      10.8619    16.292866    21.723799    3844.4927 
      47            0    -832.6272    -1.014227  -0.76421898   -1.5142431  -0.76421898 -1.1757878e-07 6.2519045e-08 1.3653663e-07      10.8619    16.292866    21.723799    3844.4927 
      48            0    -832.6272    -1.014227  -0.76421898   -1.5142431  -0.76421898 6.9587452e-08 -3.6517576e-08 -8.0571171e-08      10.8619    16.292866    21.723799    3844.4927 
      49            0    -832.6272    -1.014227  -0.76421898   -1.5142431  -0.76421898 -2.4450376e-08 1.2372958e-08 2.8106507e-08      10.8619    16.292866    21.723799    3844.4927 
      50            0    -832.6272    -1.014227  -0.76421898   -1.5142431  -0.76421898 1.2783434e-08 -5.9046129e-09 -1.4371541e-08      10.8619    16.292866    21.723799    3844.4927 
      51            0    -832.6272    -1.014227  -0.76421898   -1.5142431  -0.76421898 -9.3307775e-09 3.4983992e-09 9.9050968e-09      10.8619    16.292866    21.723799    3844.4927 
      52            0    -832.6272    -1.014227  -0.76421898   -1.5142431  -0.76421898 2.8265975e-09 -5.4416925e-10 -2.5255783e-09      10.8619    16.292866    21.723799    3844.4927 
      53            0    -832.6272    -1.014227  -0.76421898   -1.5142431  -0.76421898 -1.9092792e-09 -2.7263928e-10 1.0900004e-09      10.8619    16.292866    21.723799    3844.4927 
Loop time of 0.010524 on 1 procs for 49 steps with 192 atoms

81.4% CPU use with 1 MPI tasks x no OpenMP threads

Minimization stats:
  Stopping criterion = force tolerance
  Energy initial, next-to-last, final = 
        -832.627199814     -832.627199982     -832.627199982
  Force two-norm initial, final = 0.00299909 7.70974e-11
  Force max component initial, final = 0.000327556 9.48737e-12
  Final line search alpha, max atom move = 1 9.48737e-12
  Iterations, force evaluations = 49 98

MPI task timing breakdown:
Section |  min time  |  avg time  |  max time  |%varavg| %total
---------------------------------------------------------------
Pair    | 0.00912    | 0.00912    | 0.00912    |   0.0 | 86.66
Neigh   | 0          | 0          | 0          |   0.0 |  0.00
Comm    | 0.0004189  | 0.0004189  | 0.0004189  |   0.0 |  3.98
Output  | 0.00046802 | 0.00046802 | 0.00046802 |   0.0 |  4.45
Modify  | 0          | 0          | 0          |   0.0 |  0.00
Other   |            | 0.0005171  |            |       |  4.91

Nlocal:    192 ave 192 max 192 min
Histogram: 1 0 0 0 0 0 0 0 0 0
Nghost:    634 ave 634 max 634 min
Histogram: 1 0 0 0 0 0 0 0 0 0
Neighs:    0 ave 0 max 0 min
Histogram: 1 0 0 0 0 0 0 0 0 0
FullNghs:  5376 ave 5376 max 5376 min
Histogram: 1 0 0 0 0 0 0 0 0 0

Total # of neighbors = 5376
Ave neighs/atom = 28
Neighbor list builds = 0
Dangerous builds = 0

# Obtain new stress tensor

variable tmp equal pe
variable e1 equal ${tmp}
variable e1 equal -832.62719998231
variable tmp equal press
variable p1 equal ${tmp}
variable p1 equal -1.01422702215043
variable tmp equal pxx
variable pxx1 equal ${tmp}
variable pxx1 equal -0.764218976801996
variable tmp equal pyy
variable pyy1 equal ${tmp}
variable pyy1 equal -1.51424311283347
variable tmp equal pzz
variable pzz1 equal ${tmp}
variable pzz1 equal -0.76421897681582
variable tmp equal pxy
variable pxy1 equal ${tmp}
variable pxy1 equal -1.9092792282178e-09
variable tmp equal pxz
variable pxz1 equal ${tmp}
variable pxz1 equal -2.72639281078285e-10
variable tmp equal pyz
variable pyz1 equal ${tmp}
variable pyz1 equal 1.09000036960259e-09

# Compute elastic constant from pressure tensor

variable C1pos equal ${d1}
variable C1pos equal 76.4218976779286
variable C2pos equal ${d2}
variable C2pos equal 151.424311274546
variable C3pos equal ${d3}
variable C3pos equal 76.4218976803356
variable C4pos equal ${d4}
variable C4pos equal -1.31833482733132e-07
variable C5pos equal ${d5}
variable C5pos equal 3.9698158621617e-08
variable C6pos equal ${d6}
variable C6pos equal 2.50090495999391e-07

# Combine positive and negative

variable C1${dir} equal 0.5*(${C1neg}+${C1pos})
variable C12 equal 0.5*(${C1neg}+${C1pos})
variable C12 equal 0.5*(76.4222708924643+${C1pos})
variable C12 equal 0.5*(76.4222708924643+76.4218976779286)
variable C2${dir} equal 0.5*(${C2neg}+${C2pos})
variable C22 equal 0.5*(${C2neg}+${C2pos})
variable C22 equal 0.5*(151.42464721523+${C2pos})
variable C22 equal 0.5*(151.42464721523+151.424311274546)
variable C3${dir} equal 0.5*(${C3neg}+${C3pos})
variable C32 equal 0.5*(${C3neg}+${C3pos})
variable C32 equal 0.5*(76.4222708910656+${C3pos})
variable C32 equal 0.5*(76.4222708910656+76.4218976803356)
variable C4${dir} equal 0.5*(${C4neg}+${C4pos})
variable C42 equal 0.5*(${C4neg}+${C4pos})
variable C42 equal 0.5*(8.14103977774555e-08+${C4pos})
variable C42 equal 0.5*(8.14103977774555e-08+-1.31833482733132e-07)
variable C5${dir} equal 0.5*(${C5neg}+${C5pos})
variable C52 equal 0.5*(${C5neg}+${C5pos})
variable C52 equal 0.5*(4.43607343236898e-08+${C5pos})
variable C52 equal 0.5*(4.43607343236898e-08+3.9698158621617e-08)
variable C6${dir} equal 0.5*(${C6neg}+${C6pos})
variable C62 equal 0.5*(${C6neg}+${C6pos})
variable C62 equal 0.5*(-1.60210194339238e-07+${C6pos})
variable C62 equal 0.5*(-1.60210194339238e-07+2.50090495999391e-07)

# Delete dir to make sure it is not reused

variable dir delete

# uzz Perturbation

variable dir equal 3
include displace.mod
# NOTE: This script should not need to be
# modified. See in.elastic for more info.
#
# Find which reference length to use

if "${dir} == 1" then    "variable len0 equal ${lx0}"
if "${dir} == 2" then    "variable len0 equal ${ly0}"
if "${dir} == 3" then    "variable len0 equal ${lz0}"
variable len0 equal ${lz0}
variable len0 equal 21.7237991136209
if "${dir} == 4" then    "variable len0 equal ${lz0}"
if "${dir} == 5" then    "variable len0 equal ${lz0}"
if "${dir} == 6" then    "variable len0 equal ${ly0}"

# Reset box and simulation parameters

clear
box tilt large
read_restart restart.equil
  restoring atom style atomic from restart
  triclinic box = (-0.000949778 -0.00142467 -0.00189956) to (10.8609 16.2914 21.7219) with tilt (0 0 0)
  1 by 1 by 1 MPI processor grid
  pair style sw stores no restart info
  192 atoms
  read_restart CPU = 8.51154e-05 secs
include potential.mod
# NOTE: This script can be modified for different pair styles
# See in.elastic for more info.

# Choose potential
pair_style	sw
pair_coeff * * Si.sw Si
Reading potential file Si.sw with DATE: 2007-06-11

# Setup neighbor style
neighbor 1.0 nsq
neigh_modify once no every 1 delay 0 check yes

# Setup minimization style
min_style	     cg
min_modify	     dmax ${dmax} line quadratic
min_modify	     dmax 0.01 line quadratic

# Setup output
thermo		1
thermo_style custom step temp pe press pxx pyy pzz pxy pxz pyz lx ly lz vol
thermo_modify norm no

# Negative deformation

variable delta equal -${up}*${len0}
variable delta equal -1e-06*${len0}
variable delta equal -1e-06*21.7237991136209
variable deltaxy equal -${up}*xy
variable deltaxy equal -1e-06*xy
variable deltaxz equal -${up}*xz
variable deltaxz equal -1e-06*xz
variable deltayz equal -${up}*yz
variable deltayz equal -1e-06*yz
if "${dir} == 1" then    "change_box all x delta 0 ${delta} xy delta ${deltaxy} xz delta ${deltaxz} remap units box"
if "${dir} == 2" then    "change_box all y delta 0 ${delta} yz delta ${deltayz} remap units box"
if "${dir} == 3" then    "change_box all z delta 0 ${delta} remap units box"
change_box all z delta 0 ${delta} remap units box
change_box all z delta 0 -2.17237991136209e-05 remap units box
  triclinic box = (-0.000949778 -0.00142467 -0.00189956) to (10.8609 16.2914 21.7219) with tilt (0 0 0)
if "${dir} == 4" then    "change_box all yz delta ${delta} remap units box"
if "${dir} == 5" then    "change_box all xz delta ${delta} remap units box"
if "${dir} == 6" then    "change_box all xy delta ${delta} remap units box"

# Relax atoms positions

minimize ${etol} ${ftol} ${maxiter} ${maxeval}
minimize 0 ${ftol} ${maxiter} ${maxeval}
minimize 0 1e-10 ${maxiter} ${maxeval}
minimize 0 1e-10 100 ${maxeval}
minimize 0 1e-10 100 1000
Neighbor list info ...
  update every 1 steps, delay 0 steps, check yes
  max neighbors/atom: 2000, page size: 100000
  master list distance cutoff = 4.77118
  ghost atom cutoff = 4.77118
  1 neighbor lists, perpetual/occasional/extra = 1 0 0
  (1) pair sw, perpetual
      attributes: full, newton on
      pair build: full/nsq
      stencil: none
      bin: none
Per MPI rank memory allocation (min/avg/max) = 4.178 | 4.178 | 4.178 Mbytes
Step Temp PotEng Press Pxx Pyy Pzz Pxy Pxz Pyz Lx Ly Lz Volume 
       4            0    -832.6272     1.014294   0.76428958   0.76428315    1.5143094    1.6660605 -0.076089012   0.43727149      10.8619    16.292849    21.723777     3844.485 
       5            0    -832.6272     1.014232   0.76422381   0.76422433    1.5142479  -0.39440084  0.018013282  -0.10350854      10.8619    16.292849    21.723777     3844.485 
       6            0    -832.6272    1.0142305   0.76422225   0.76422276    1.5142464   0.34143304 -0.015595229  0.089605482      10.8619    16.292849    21.723777     3844.485 
       7            0    -832.6272    1.0142306    0.7642226    0.7642228    1.5142463  -0.23685534  0.010818992 -0.062159392      10.8619    16.292849    21.723777     3844.485 
       8            0    -832.6272    1.0142306   0.76422272   0.76422278    1.5142464   0.12221955 -0.0055827783  0.032073817      10.8619    16.292849    21.723777     3844.485 
       9            0    -832.6272    1.0142306   0.76422269   0.76422273    1.5142464 -0.061069657 0.0027897027  -0.01602577      10.8619    16.292849    21.723777     3844.485 
      10            0    -832.6272    1.0142306   0.76422269   0.76422273    1.5142464  0.031066091 -0.0014192408 0.0081516743      10.8619    16.292849    21.723777     3844.485 
      11            0    -832.6272    1.0142306    0.7642227   0.76422272    1.5142465 -0.020718298 0.00094664064 -0.0054358487      10.8619    16.292849    21.723777     3844.485 
      12            0    -832.6272    1.0142306    0.7642227   0.76422271    1.5142465  0.010753322 -0.00049142058 0.0028209305      10.8619    16.292849    21.723777     3844.485 
      13            0    -832.6272    1.0142306    0.7642227   0.76422271    1.5142465 -0.0058918191 0.00026933936 -0.0015452771      10.8619    16.292849    21.723777     3844.485 
      14            0    -832.6272    1.0142306    0.7642227   0.76422271    1.5142465 0.0032844995 -0.00015022825 0.0008611085      10.8619    16.292849    21.723777     3844.485 
      15            0    -832.6272    1.0142306    0.7642227   0.76422271    1.5142465 -0.0016644177 7.6235344e-05 -0.00043595061      10.8619    16.292849    21.723777     3844.485 
      16            0    -832.6272    1.0142306   0.76422271   0.76422271    1.5142465 0.0009925142 -4.5569658e-05 0.00025951821      10.8619    16.292849    21.723777     3844.485 
      17            0    -832.6272    1.0142306   0.76422271   0.76422271    1.5142465 -0.00057092189 2.6335751e-05 -0.00014879766      10.8619    16.292849    21.723777     3844.485 
      18            0    -832.6272    1.0142306   0.76422271   0.76422271    1.5142465 0.00037786918 -1.7603895e-05 9.7788076e-05      10.8619    16.292849    21.723777     3844.485 
      19            0    -832.6272    1.0142306   0.76422271   0.76422271    1.5142465 -0.00019798669 9.3526606e-06 -5.0722555e-05      10.8619    16.292849    21.723777     3844.485 
      20            0    -832.6272    1.0142306   0.76422271   0.76422271    1.5142465 0.00010861742 -5.3189988e-06 2.7073767e-05      10.8619    16.292849    21.723777     3844.485 
      21            0    -832.6272    1.0142306   0.76422271   0.76422271    1.5142465 -6.0616887e-05 3.1821168e-06 -1.4255094e-05      10.8619    16.292849    21.723777     3844.485 
      22            0    -832.6272    1.0142306   0.76422271   0.76422271    1.5142465 2.8275101e-05 -1.7256607e-06 5.6836663e-06      10.8619    16.292849    21.723777     3844.485 
      23            0    -832.6272    1.0142306   0.76422271   0.76422271    1.5142465 -1.603906e-05 1.3077736e-06 -1.9087473e-06      10.8619    16.292849    21.723777     3844.485 
      24            0    -832.6272    1.0142306   0.76422271   0.76422271    1.5142465 1.1028054e-05 -1.3210615e-06 -3.7557151e-07      10.8619    16.292849    21.723777     3844.485 
      25            0    -832.6272    1.0142306   0.76422271   0.76422271    1.5142465 -5.4274132e-06 9.5947257e-07 1.421909e-06      10.8619    16.292849    21.723777     3844.485 
      26            0    -832.6272    1.0142306   0.76422271   0.76422271    1.5142465 6.0968353e-06 -1.524982e-06 -3.3864393e-06      10.8619    16.292849    21.723777     3844.485 
      27            0    -832.6272    1.0142306   0.76422271   0.76422271    1.5142465 -4.0285172e-06 1.2932488e-06 3.3801013e-06      10.8619    16.292849    21.723777     3844.485 
      28            0    -832.6272    1.0142306   0.76422271   0.76422271    1.5142465 3.4101259e-06 -1.2703537e-06 -3.5639447e-06      10.8619    16.292849    21.723777     3844.485 
      29            0    -832.6272    1.0142306   0.76422271   0.76422271    1.5142465 -3.4799223e-06 1.4550444e-06 4.2719024e-06      10.8619    16.292849    21.723777     3844.485 
[...]
      10            0    -832.6272 -2.0984337e-07 -5.5844277e-07 1.5487327e-07 -2.2596061e-07  -0.52778767 -0.0024656064    0.0141646      10.8619    16.292849    21.723799    3844.4888 
      11            0    -832.6272 -1.6492847e-07 -6.070549e-07 2.1413074e-07 -1.0186126e-07  -0.59016988 0.0017247814 -0.0099081702      10.8619    16.292849    21.723799    3844.4888 
      12            0    -832.6272 -1.9239279e-07 -5.6966123e-07 1.6315995e-07 -1.7067708e-07   -0.5506237 -0.00093168628 0.0053518817      10.8619    16.292849    21.723799    3844.4888 
      13            0    -832.6272 -1.7919607e-07 -5.9225517e-07 1.8572051e-07 -1.3105356e-07  -0.57230373 0.00052467696 -0.0030136282      10.8619    16.292849    21.723799    3844.4888 
      14            0    -832.6272 -1.8675133e-07 -5.7810821e-07 1.692822e-07 -1.5142799e-07  -0.56007112 -0.00029708562 0.0017061696      10.8619    16.292849    21.723799    3844.4888 
      15            0    -832.6272 -1.8147808e-07 -5.8397887e-07 1.7812784e-07 -1.3858321e-07  -0.56674891 0.00015154796 -0.00087003525      10.8619    16.292849    21.723799    3844.4888 
      16            0    -832.6272 -1.8367691e-07 -5.7908834e-07 1.7300404e-07 -1.4494643e-07  -0.56314383 -9.0691276e-05 0.00052035857      10.8619    16.292849    21.723799    3844.4888 
      17            0    -832.6272 -1.8141818e-07 -5.8026308e-07 1.7678118e-07 -1.4077266e-07  -0.56527087 5.2271353e-05 -0.00029957611      10.8619    16.292849    21.723799    3844.4888 
      18            0    -832.6272 -1.818916e-07 -5.7781177e-07 1.7527335e-07 -1.4313639e-07   -0.5639787 -3.462959e-05 0.00019799308      10.8619    16.292849    21.723799    3844.4888 
      19            0    -832.6272 -1.810586e-07 -5.7818728e-07 1.7680847e-07 -1.4179699e-07  -0.56476293 1.8159821e-05 -0.00010347399      10.8619    16.292849    21.723799    3844.4888 
      20            0    -832.6272 -1.8122987e-07 -5.7732749e-07 1.7640795e-07 -1.4277008e-07  -0.56434584 -9.9696809e-06 5.6292977e-05      10.8619    16.292849    21.723799    3844.4888 
      21            0    -832.6272 -1.8096418e-07 -5.7736836e-07 1.7689526e-07 -1.4241945e-07  -0.56457526 5.570235e-06 -3.0867604e-05      10.8619    16.292849    21.723799    3844.4888 
      22            0    -832.6272 -1.8107264e-07 -5.771487e-07 1.7670669e-07 -1.4277591e-07  -0.56445567 -2.6046326e-06 1.3774966e-05      10.8619    16.292849    21.723799    3844.4888 
      23            0    -832.6272 -1.809961e-07 -5.7713134e-07 1.7684315e-07 -1.4270011e-07  -0.56451406 1.4861629e-06 -6.9641636e-06      10.8619    16.292849    21.723799    3844.4888 
      24            0    -832.6272 -1.810359e-07 -5.7707799e-07 1.7678482e-07 -1.4281453e-07  -0.56448002 -1.032686e-06 3.6976391e-06      10.8619    16.292849    21.723799    3844.4888 
      25            0    -832.6272 -1.8100327e-07 -5.7706643e-07 1.7683139e-07 -1.4277476e-07  -0.56449929 5.1627539e-07 -1.0203668e-06      10.8619    16.292849    21.723799    3844.4888 
      26            0    -832.6272 -1.8099504e-07 -5.770315e-07 1.7682139e-07 -1.4277502e-07  -0.56448765 -5.9142098e-07 -1.000203e-08      10.8619    16.292849    21.723799    3844.4888 
      27            0    -832.6272 -1.8100017e-07 -5.7704054e-07 1.7681336e-07 -1.4277333e-07  -0.56449655 3.9822717e-07 7.4483694e-07      10.8619    16.292849    21.723799    3844.4888 
      28            0    -832.6272 -1.8102554e-07 -5.7706247e-07 1.7678929e-07 -1.4280344e-07  -0.56449104 -3.417452e-07 -1.0845499e-06      10.8619    16.292849    21.723799    3844.4888 
      29            0    -832.6272 -1.8096666e-07 -5.7700812e-07 1.7684741e-07 -1.4273926e-07  -0.56449541 3.5300304e-07 1.5170423e-06      10.8619    16.292849    21.723799    3844.4888 
      30            0    -832.6272 -1.8101356e-07 -5.770427e-07 1.7679716e-07 -1.4279515e-07  -0.56449174 -3.1867023e-07 -1.6029901e-06      10.8619    16.292849    21.723799    3844.4888 
      31            0    -832.6272 -1.8098919e-07 -5.7702835e-07 1.7682729e-07 -1.427665e-07  -0.56449504 3.437287e-07 1.829353e-06      10.8619    16.292849    21.723799    3844.4888 
      32            0    -832.6272 -1.8099162e-07 -5.7702706e-07 1.7682168e-07 -1.4276948e-07  -0.56449187 -3.210713e-07 -1.7774807e-06      10.8619    16.292849    21.723799    3844.4888 
      33            0    -832.6272 -1.8096631e-07 -5.7701417e-07 1.7685156e-07 -1.4273632e-07  -0.56449485 3.2440179e-07 1.8266277e-06      10.8619    16.292849    21.723799    3844.4888 
      34            0    -832.6272 -1.8099106e-07 -5.7702264e-07 1.768182e-07 -1.4276874e-07  -0.56449236 -2.2193782e-07 -1.2613709e-06      10.8619    16.292849    21.723799    3844.4888 
      35            0    -832.6272 -1.809786e-07 -5.7701764e-07 1.7684275e-07 -1.427609e-07  -0.56449456 2.6472648e-07 1.515684e-06      10.8619    16.292849    21.723799    3844.4888 
      36            0    -832.6272 -1.8096655e-07 -5.7700336e-07 1.7684806e-07 -1.4274436e-07  -0.56449199 -3.071978e-07 -1.7624136e-06      10.8619    16.292849    21.723799    3844.4888 
      37            0    -832.6272 -1.8102901e-07 -5.7706672e-07 1.7678993e-07 -1.4281023e-07  -0.56449461 2.759604e-07 1.5845568e-06      10.8619    16.292849    21.723799    3844.4888 
      38            0    -832.6272 -1.8097723e-07 -5.7701102e-07 1.768382e-07 -1.4275886e-07  -0.56449215 -2.7081264e-07 -1.55517e-06      10.8619    16.292849    21.723799    3844.4888 
      39            0    -832.6272 -1.809739e-07 -5.7701628e-07 1.7684223e-07 -1.4274765e-07  -0.56449485 3.2959801e-07 1.8928188e-06      10.8619    16.292849    21.723799    3844.4888 
      40            0    -832.6272 -1.8098131e-07 -5.7701943e-07 1.7683621e-07 -1.427607e-07  -0.56449223 -2.529499e-07 -1.4531344e-06      10.8619    16.292849    21.723799    3844.4888 
      41            0    -832.6272 -1.8098053e-07 -5.7702204e-07 1.7683645e-07 -1.4275601e-07  -0.56449467 2.9114415e-07 1.6723833e-06      10.8619    16.292849    21.723799    3844.4888 
      42            0    -832.6272 -1.8096182e-07 -5.7700105e-07 1.7685598e-07 -1.4274038e-07  -0.56449163 -3.8856996e-07 -2.2311188e-06      10.8619    16.292849    21.723799    3844.4888 
      43            0    -832.6272 -1.8096393e-07 -5.7700956e-07 1.768544e-07 -1.4273663e-07  -0.56449452 2.5802925e-07 1.4809312e-06      10.8619    16.292849    21.723799    3844.4888 
      44            0    -832.6272 -1.8097183e-07 -5.7700705e-07 1.7684291e-07 -1.4275134e-07   -0.5644922 -2.6005639e-07 -1.491976e-06      10.8619    16.292849    21.723799    3844.4888 
      45            0    -832.6272 -1.8094087e-07 -5.7698434e-07 1.7687753e-07 -1.427158e-07  -0.56449421 1.8844261e-07 1.0805676e-06      10.8619    16.292849    21.723799    3844.4888 
      46            0    -832.6272 -1.8097733e-07 -5.7701438e-07 1.7684237e-07 -1.4275999e-07  -0.56449283 -1.2083666e-07 -6.918362e-07      10.8619    16.292849    21.723799    3844.4888 
      47            0    -832.6272 -1.809885e-07 -5.770241e-07 1.7682806e-07 -1.4276945e-07  -0.56449358 4.7620319e-08 2.7115649e-07      10.8619    16.292849    21.723799    3844.4888 
      48            0    -832.6272 -1.8098145e-07 -5.7702008e-07 1.7683789e-07 -1.4276217e-07  -0.56449324 -2.9182045e-08 -1.6349176e-07      10.8619    16.292849    21.723799    3844.4888 
      49            0    -832.6272 -1.809764e-07 -5.770184e-07 1.7683756e-07 -1.4274837e-07  -0.56449341 1.0655814e-08 5.795257e-08      10.8619    16.292849    21.723799    3844.4888 
      50            0    -832.6272 -1.8100358e-07 -5.7703793e-07 1.7680562e-07 -1.4277842e-07  -0.56449334 -5.8291613e-09 -3.0021161e-08      10.8619    16.292849    21.723799    3844.4888 
      51            0    -832.6272 -1.8097685e-07 -5.7701343e-07 1.7683402e-07 -1.4275113e-07  -0.56449338 4.4429652e-09 2.1188873e-08      10.8619    16.292849    21.723799    3844.4888 
      52            0    -832.6272 -1.8095857e-07 -5.7699588e-07 1.768595e-07 -1.4273933e-07  -0.56449336 -1.4453038e-09 -5.7605296e-09      10.8619    16.292849    21.723799    3844.4888 
      53            0    -832.6272 -1.8097076e-07 -5.7701819e-07 1.7685176e-07 -1.4274584e-07  -0.56449337 1.1118917e-09 3.0465666e-09      10.8619    16.292849    21.723799    3844.4888 
Loop time of 0.0105839 on 1 procs for 49 steps with 192 atoms

91.2% CPU use with 1 MPI tasks x no OpenMP threads

Minimization stats:
  Stopping criterion = force tolerance
  Energy initial, next-to-last, final = 
        -832.627199819     -832.627199983     -832.627199983
  Force two-norm initial, final = 0.00295789 7.70667e-11
  Force max component initial, final = 0.000311954 9.51243e-12
  Final line search alpha, max atom move = 1 9.51243e-12
  Iterations, force evaluations = 49 98

MPI task timing breakdown:
Section |  min time  |  avg time  |  max time  |%varavg| %total
---------------------------------------------------------------
Pair    | 0.0091443  | 0.0091443  | 0.0091443  |   0.0 | 86.40
Neigh   | 0          | 0          | 0          |   0.0 |  0.00
Comm    | 0.00042629 | 0.00042629 | 0.00042629 |   0.0 |  4.03
Output  | 0.00051117 | 0.00051117 | 0.00051117 |   0.0 |  4.83
Modify  | 0          | 0          | 0          |   0.0 |  0.00
Other   |            | 0.0005021  |            |       |  4.74

Nlocal:    192 ave 192 max 192 min
Histogram: 1 0 0 0 0 0 0 0 0 0
Nghost:    634 ave 634 max 634 min
Histogram: 1 0 0 0 0 0 0 0 0 0
Neighs:    0 ave 0 max 0 min
Histogram: 1 0 0 0 0 0 0 0 0 0
FullNghs:  5376 ave 5376 max 5376 min
Histogram: 1 0 0 0 0 0 0 0 0 0

Total # of neighbors = 5376
Ave neighs/atom = 28
Neighbor list builds = 0
Dangerous builds = 0

# Obtain new stress tensor

variable tmp equal pe
variable e1 equal ${tmp}
variable e1 equal -832.627199983438
variable tmp equal press
variable p1 equal ${tmp}
variable p1 equal -1.80970756552334e-07
variable tmp equal pxx
variable pxx1 equal ${tmp}
variable pxx1 equal -5.77018187240919e-07
variable tmp equal pyy
variable pyy1 equal ${tmp}
variable pyy1 equal 1.76851759913154e-07
variable tmp equal pzz
variable pzz1 equal ${tmp}
variable pzz1 equal -1.42745842329238e-07
variable tmp equal pxy
variable pxy1 equal ${tmp}
variable pxy1 equal -0.564493369463793
variable tmp equal pxz
variable pxz1 equal ${tmp}
variable pxz1 equal 1.11189169793893e-09
variable tmp equal pyz
variable pyz1 equal ${tmp}
variable pyz1 equal 3.04656658907157e-09

# Compute elastic constant from pressure tensor

variable C1pos equal ${d1}
variable C1pos equal 5.76995477571719e-05
variable C2pos equal ${d2}
variable C2pos equal -1.76939767743281e-05
variable C3pos equal ${d3}
variable C3pos equal 1.42733378697743e-05
variable C4pos equal ${d4}
variable C4pos equal -3.2749010468003e-07
variable C5pos equal ${d5}
variable C5pos equal -9.87549392801045e-08
variable C6pos equal ${d6}
variable C6pos equal 56.4493370055419

# Combine positive and negative

variable C1${dir} equal 0.5*(${C1neg}+${C1pos})
variable C16 equal 0.5*(${C1neg}+${C1pos})
variable C16 equal 0.5*(-5.77005782256156e-05+${C1pos})
variable C16 equal 0.5*(-5.77005782256156e-05+5.76995477571719e-05)
variable C2${dir} equal 0.5*(${C2neg}+${C2pos})
variable C26 equal 0.5*(${C2neg}+${C2pos})
variable C26 equal 0.5*(1.76913438170285e-05+${C2pos})
variable C26 equal 0.5*(1.76913438170285e-05+-1.76939767743281e-05)
variable C3${dir} equal 0.5*(${C3neg}+${C3pos})
variable C36 equal 0.5*(${C3neg}+${C3pos})
variable C36 equal 0.5*(-1.4275190393034e-05+${C3pos})
variable C36 equal 0.5*(-1.4275190393034e-05+1.42733378697743e-05)
variable C4${dir} equal 0.5*(${C4neg}+${C4pos})
variable C46 equal 0.5*(${C4neg}+${C4pos})
variable C46 equal 0.5*(1.28354508756054e-07+${C4pos})
variable C46 equal 0.5*(1.28354508756054e-07+-3.2749010468003e-07)
variable C5${dir} equal 0.5*(${C5neg}+${C5pos})
variable C56 equal 0.5*(${C5neg}+${C5pos})
variable C56 equal 0.5*(1.24795999491266e-07+${C5pos})
variable C56 equal 0.5*(1.24795999491266e-07+-9.87549392801045e-08)
variable C6${dir} equal 0.5*(${C6neg}+${C6pos})
variable C66 equal 0.5*(${C6neg}+${C6pos})
variable C66 equal 0.5*(56.449336629594+${C6pos})
variable C66 equal 0.5*(56.449336629594+56.4493370055419)

# Delete dir to make sure it is not reused

variable dir delete

# Output final values

variable C11all equal ${C11}
variable C11all equal 151.424479259648
variable C22all equal ${C22}
variable C22all equal 151.424479244888
variable C33all equal ${C33}
variable C33all equal 151.42447926214

variable C12all equal 0.5*(${C12}+${C21})
variable C12all equal 0.5*(76.4220842851964+${C21})
variable C12all equal 0.5*(76.4220842851964+76.4220842920885)
variable C13all equal 0.5*(${C13}+${C31})
variable C13all equal 0.5*(76.4220842943775+${C31})
variable C13all equal 0.5*(76.4220842943775+76.4220842919341)
variable C23all equal 0.5*(${C23}+${C32})
variable C23all equal 0.5*(76.4220842950037+${C32})
variable C23all equal 0.5*(76.4220842950037+76.4220842857006)

variable C44all equal ${C44}
variable C44all equal 56.4493366902061
variable C55all equal ${C55}
variable C55all equal 56.44933679628
variable C66all equal ${C66}
variable C66all equal 56.449336817568

variable C14all equal 0.5*(${C14}+${C41})
variable C14all equal 0.5*(-1.39198757685013e-09+${C41})
variable C14all equal 0.5*(-1.39198757685013e-09+-2.9845451033505e-08)
variable C15all equal 0.5*(${C15}+${C51})
variable C15all equal 0.5*(1.39368534210005e-09+${C51})
variable C15all equal 0.5*(1.39368534210005e-09+4.23339807687216e-08)
variable C16all equal 0.5*(${C16}+${C61})
variable C16all equal 0.5*(-5.15234221850876e-10+${C61})
variable C16all equal 0.5*(-5.15234221850876e-10+-4.43107602889934e-08)

variable C24all equal 0.5*(${C24}+${C42})
variable C24all equal 0.5*(-1.16018616935098e-09+${C42})
variable C24all equal 0.5*(-1.16018616935098e-09+-2.52115424778382e-08)
variable C25all equal 0.5*(${C25}+${C52})
variable C25all equal 0.5*(1.61745428789984e-09+${C52})
variable C25all equal 0.5*(1.61745428789984e-09+4.20294464726534e-08)
variable C26all equal 0.5*(${C26}+${C62})
variable C26all equal 0.5*(-1.31647864979894e-09+${C62})
variable C26all equal 0.5*(-1.31647864979894e-09+4.49401508300765e-08)

variable C34all equal 0.5*(${C34}+${C43})
variable C34all equal 0.5*(-1.11957111935015e-09+${C43})
variable C34all equal 0.5*(-1.11957111935015e-09+2.7087898926581e-08)
variable C35all equal 0.5*(${C35}+${C53})
variable C35all equal 0.5*(1.21895788439995e-09+${C53})
variable C35all equal 0.5*(1.21895788439995e-09+-5.2868266120424e-08)
variable C36all equal 0.5*(${C36}+${C63})
variable C36all equal 0.5*(-9.26261629850032e-10+${C63})
variable C36all equal 0.5*(-9.26261629850032e-10+9.57151523372209e-08)

variable C45all equal 0.5*(${C45}+${C54})
variable C45all equal 0.5*(9.15530843830415e-09+${C54})
variable C45all equal 0.5*(9.15530843830415e-09+-3.20232001122257e-08)
variable C46all equal 0.5*(${C46}+${C64})
variable C46all equal 0.5*(-9.9567797961988e-08+${C64})
variable C46all equal 0.5*(-9.9567797961988e-08+-2.36750699868697e-08)
variable C56all equal 0.5*(${C56}+${C65})
variable C56all equal 0.5*(1.30205301055808e-08+${C65})
variable C56all equal 0.5*(1.30205301055808e-08+5.63191395008538e-08)

# Average moduli for cubic crystals

variable C11cubic equal (${C11all}+${C22all}+${C33all})/3.0
variable C11cubic equal (151.424479259648+${C22all}+${C33all})/3.0
variable C11cubic equal (151.424479259648+151.424479244888+${C33all})/3.0
variable C11cubic equal (151.424479259648+151.424479244888+151.42447926214)/3.0
variable C12cubic equal (${C12all}+${C13all}+${C23all})/3.0
variable C12cubic equal (76.4220842886425+${C13all}+${C23all})/3.0
variable C12cubic equal (76.4220842886425+76.4220842931558+${C23all})/3.0
variable C12cubic equal (76.4220842886425+76.4220842931558+76.4220842903522)/3.0
variable C44cubic equal (${C44all}+${C55all}+${C66all})/3.0
variable C44cubic equal (56.4493366902061+${C55all}+${C66all})/3.0
variable C44cubic equal (56.4493366902061+56.44933679628+${C66all})/3.0
variable C44cubic equal (56.4493366902061+56.44933679628+56.449336817568)/3.0

variable bulkmodulus equal (${C11cubic}+2*${C12cubic})/3.0
variable bulkmodulus equal (151.424479255559+2*${C12cubic})/3.0
variable bulkmodulus equal (151.424479255559+2*76.4220842907168)/3.0
variable shearmodulus1 equal ${C44cubic}
variable shearmodulus1 equal 56.449336768018
variable shearmodulus2 equal (${C11cubic}-${C12cubic})/2.0
variable shearmodulus2 equal (151.424479255559-${C12cubic})/2.0
variable shearmodulus2 equal (151.424479255559-76.4220842907168)/2.0
variable poissonratio equal 1.0/(1.0+${C11cubic}/${C12cubic})
variable poissonratio equal 1.0/(1.0+151.424479255559/${C12cubic})
variable poissonratio equal 1.0/(1.0+151.424479255559/76.4220842907168)

# For Stillinger-Weber silicon, the analytical results
# are known to be (E. R. Cowley, 1988):
#               C11 = 151.4 GPa
#               C12 = 76.4 GPa
#               C44 = 56.4 GPa

print "========================================="
=========================================
print "Components of the Elastic Constant Tensor"
Components of the Elastic Constant Tensor
print "========================================="
=========================================

print "Elastic Constant C11all = ${C11all} ${cunits}"
Elastic Constant C11all = 151.424479259648 GPa
print "Elastic Constant C22all = ${C22all} ${cunits}"
Elastic Constant C22all = 151.424479244888 GPa
print "Elastic Constant C33all = ${C33all} ${cunits}"
Elastic Constant C33all = 151.42447926214 GPa

print "Elastic Constant C12all = ${C12all} ${cunits}"
Elastic Constant C12all = 76.4220842886425 GPa
print "Elastic Constant C13all = ${C13all} ${cunits}"
Elastic Constant C13all = 76.4220842931558 GPa
print "Elastic Constant C23all = ${C23all} ${cunits}"
Elastic Constant C23all = 76.4220842903522 GPa

print "Elastic Constant C44all = ${C44all} ${cunits}"
Elastic Constant C44all = 56.4493366902061 GPa
print "Elastic Constant C55all = ${C55all} ${cunits}"
Elastic Constant C55all = 56.44933679628 GPa
print "Elastic Constant C66all = ${C66all} ${cunits}"
Elastic Constant C66all = 56.449336817568 GPa

print "Elastic Constant C14all = ${C14all} ${cunits}"
Elastic Constant C14all = -1.56187193051776e-08 GPa
print "Elastic Constant C15all = ${C15all} ${cunits}"
Elastic Constant C15all = 2.18638330554108e-08 GPa
print "Elastic Constant C16all = ${C16all} ${cunits}"
Elastic Constant C16all = -2.24129972554221e-08 GPa

print "Elastic Constant C24all = ${C24all} ${cunits}"
Elastic Constant C24all = -1.31858643235946e-08 GPa
print "Elastic Constant C25all = ${C25all} ${cunits}"
Elastic Constant C25all = 2.18234503802766e-08 GPa
print "Elastic Constant C26all = ${C26all} ${cunits}"
Elastic Constant C26all = 2.18118360901388e-08 GPa

print "Elastic Constant C34all = ${C34all} ${cunits}"
Elastic Constant C34all = 1.29841639036154e-08 GPa
print "Elastic Constant C35all = ${C35all} ${cunits}"
Elastic Constant C35all = -2.5824654118012e-08 GPa
print "Elastic Constant C36all = ${C36all} ${cunits}"
Elastic Constant C36all = 4.73944453536854e-08 GPa

print "Elastic Constant C45all = ${C45all} ${cunits}"
Elastic Constant C45all = -1.14339458369608e-08 GPa
print "Elastic Constant C46all = ${C46all} ${cunits}"
Elastic Constant C46all = -6.16214339744288e-08 GPa
print "Elastic Constant C56all = ${C56all} ${cunits}"
Elastic Constant C56all = 3.46698348032173e-08 GPa

print "========================================="
=========================================
print "Average properties for a cubic crystal"
Average properties for a cubic crystal
print "========================================="
=========================================

print "Bulk Modulus = ${bulkmodulus} ${cunits}"
Bulk Modulus = 101.422882612331 GPa
print "Shear Modulus 1 = ${shearmodulus1} ${cunits}"
Shear Modulus 1 = 56.449336768018 GPa
print "Shear Modulus 2 = ${shearmodulus2} ${cunits}"
Shear Modulus 2 = 37.5011974824211 GPa
print "Poisson Ratio = ${poissonratio}"
Poisson Ratio = 0.335410300253203
Total wall time: 0:00:00
